-- This reservoir simulation deck is made available under the Open Database
-- License: http://opendatacommons.org/licenses/odbl/1.0/. Any rights in
-- individual contents of the database are licensed under the Database Contents
-- License: http://opendatacommons.org/licenses/dbcl/1.0/

-- Copyright (C) 2024 Equinor


SPECGRID
 9 13 41 1 F /

COORD
 1121.6766 1824.2718 3110.4720 1118.4374 1825.4828 3159.2160
 1215.6835 1776.5158 3083.4390 1213.8128 1777.1886 3109.1330
 1327.2680 1723.9730 2810.3780 1256.5490 1747.5540 3719.1790
 1416.7610 1681.3180 2792.6700 1343.8030 1702.3290 3708.6920
 1501.4620 1642.6690 2776.5510 1431.0710 1657.6230 3695.8100
 1582.0010 1607.2520 2762.3030 1519.0110 1613.1870 3676.0100
 1654.8763 1572.9588 2838.0920 1654.1516 1572.8983 2850.5220
 1732.7320 1537.3726 2837.7710 1732.1595 1537.1810 2850.1600
 1808.8836 1498.4977 2906.7560 1807.2198 1497.3112 2956.1600
 1888.7897 1459.7626 2906.0720 1887.8007 1458.2887 2953.4870
 1174.2459 1907.8917 3125.4560 1170.9822 1909.1654 3167.1900
 1269.0883 1859.5758 3096.6830 1266.7752 1860.4472 3123.6750
 1384.9270 1805.1190 2821.7920 1300.8240 1834.6810 3737.4460
 1474.6670 1762.7580 2803.5750 1387.5650 1789.5740 3728.4120
 1558.2990 1725.4730 2786.5430 1474.7050 1744.9580 3715.3400
 1629.9612 1693.5798 2854.2830 1629.2124 1693.6566 2863.6620
 1707.1991 1662.5257 2826.8130 1705.1367 1662.2858 2858.1030
 1780.7941 1629.5011 2851.0100 1780.4732 1629.3618 2857.3930
 1854.7280 1591.4609 2915.9610 1853.9775 1590.7632 2937.9000
 1932.7846 1553.4568 2913.3550 1931.9167 1551.5486 2961.7930
 1227.9115 1990.7271 3125.4560 1225.1063 1991.8709 3156.4830
 1347.8070 1932.1780 2854.1390 1257.2150 1968.0120 3765.0450
 1443.3490 1885.1520 2834.4250 1343.9660 1922.2260 3755.9030
 1535.5860 1842.0810 2803.3660 1430.0120 1877.3120 3746.8770
 1609.6988 1808.5269 2865.4040 1608.4487 1808.8531 2877.1050
 1686.4517 1778.8696 2846.8050 1683.6022 1779.1838 2877.2790
 1758.9286 1753.8041 2838.1290 1756.4265 1753.3658 2871.3750
 1829.9433 1725.0771 2846.4480 1828.7228 1724.3499 2868.6370
 1900.5322 1687.0310 2915.9610 1900.2712 1686.7001 2923.5610
 1975.9326 1648.3532 2921.8220 1975.4050 1646.3981 2960.9740
 1305.7490 2063.0470 2887.6990 1212.9400 2102.5550 3792.5930
 1404.3770 2012.7060 2869.6310 1300.2260 2055.9720 3782.6140
 1504.9240 1963.2600 2833.1630 1385.7860 2010.5060 3773.9640
 1589.3496 1922.8930 2880.4510 1588.1722 1923.3202 2889.2290
 1672.6599 1887.5402 2852.1160 1668.2349 1888.8340 2886.6500
 1743.3921 1864.0505 2854.3280 1739.3836 1864.5162 2890.6750
 1811.6922 1847.4721 2846.8970 1808.3783 1846.6216 2885.2890
 1878.9399 1824.3525 2853.4840 1877.1433 1822.8723 2883.2250
 1948.1765 1788.7402 2861.6510 1947.3070 1787.2089 2887.1300
 2018.6669 1744.6970 2923.5070 2018.4763 1743.1164 2948.7220
 1359.4460 2145.1840 2902.7240 1256.3910 2190.9170 3808.4320
 1463.4440 2091.9840 2859.5300 1342.5340 2144.6640 3799.6140
 1573.5000 2037.8340 2790.2200 1426.6870 2099.6930 3790.0560
 1655.0263 1998.4033 2869.2900 1650.7609 2000.0900 2896.1320
 1734.6989 1964.9058 2857.5800 1729.1608 1966.7501 2894.0610
 1799.9244 1947.6978 2860.5520 1795.3458 1948.3383 2896.6260
 1862.5724 1942.0473 2861.1250 1858.8671 1940.7657 2899.9060
 1927.6076 1927.4968 2863.4410 1925.3291 1924.9132 2898.3890
 1993.6079 1889.7474 2863.4030 1992.6132 1887.3050 2893.9910
 2060.7650 1839.9739 2925.9000 2060.7688 1839.6231 2930.6290
 1413.0390 2227.4680 2896.7180 1299.8340 2279.8200 3822.6860
 1522.7150 2170.8940 2825.4440 1385.0910 2233.9530 3813.8330
 1613.6536 2123.7811 2901.2950 1611.3694 2124.8142 2915.4530
 1713.7573 2074.1375 2868.6890 1707.2719 2077.0094 2905.3890
 1790.4714 2039.1213 2865.7230 1783.8520 2041.8401 2904.9190
 1847.1517 2024.9010 2864.7340 1841.2927 2026.3479 2909.5790
 1903.5128 2029.4723 2867.2780 1899.6783 2028.0031 2910.3770
 1970.2787 2025.3648 2875.4810 1967.9768 2021.8222 2913.6140
 2035.0144 1980.9868 2871.8000 2034.1981 1977.9802 2906.5790
 2098.5040 1936.9160 2790.5450 2110.5190 1879.6550 3580.9330
 1463.2000 2311.5350 2892.7290 1343.6920 2369.1310 3833.7470
 1573.8780 2253.3400 2811.0140 1428.6970 2323.5750 3823.9320
 1662.7372 2205.5918 2897.5770 1658.0448 2207.8928 2925.9520
 1760.7588 2153.1029 2880.2720 1753.5424 2156.7472 2919.9090
 1835.1691 2112.7850 2880.8990 1828.1719 2116.4818 2921.4240
 1880.6374 2096.2583 2879.1830 1875.8013 2098.6201 2921.0220
 1932.1840 2099.9879 2879.5280 1929.6940 2099.6040 2918.8760
 2002.5261 2097.0984 2879.2970 2001.1777 2094.5221 2916.2570
 2070.3559 2050.5946 2900.5540 2070.3320 2049.9527 2911.0510
 2137.7968 2007.6747 2904.8250 2138.1251 2007.1176 2914.1260
 1509.3350 2397.9840 2899.7290 1387.8340 2458.7220 3842.3610
 1599.6083 2349.1583 2939.8470 1598.5069 2349.7174 2947.6120
 1705.4709 2291.7597 2892.6190 1699.5282 2294.8729 2929.5400
 1802.4447 2236.9707 2883.7720 1795.3689 2240.9254 2923.5610
 1877.1384 2189.3538 2883.4000 1870.7068 2193.5302 2921.7110
 1912.5792 2170.2580 2884.2110 1909.0472 2173.1579 2921.7770
 1971.0292 2168.2136 2887.0460 1969.2776 2168.9046 2922.7040
 2039.8544 2157.7063 2887.0110 2039.2657 2156.7498 2921.0520
 2110.8014 2126.1542 2893.0180 2111.0763 2125.3080 2912.3620
 2178.1035 2093.8894 2893.0390 2179.1038 2092.7613 2911.8070
 1543.7064 2491.2122 2992.6460 1543.4403 2491.3485 2994.6850
 1641.6242 2438.2692 2947.3830 1638.9955 2439.6485 2966.2680
 1743.3881 2382.6886 2905.3950 1737.0583 2386.1388 2946.4850
 1837.5411 2329.3951 2899.6000 1830.6712 2333.4167 2940.7900
 1915.0102 2280.0284 2895.3010 1908.7351 2284.3750 2935.1160
 1956.6358 2254.2615 2893.9910 1953.1731 2257.5785 2932.8800
 2023.8548 2247.8291 2896.1210 2021.8818 2248.9330 2932.1020
 2092.0490 2235.1539 2892.9410 2091.3997 2234.6146 2927.3360
 2160.6877 2211.2387 2882.9120 2161.3313 2209.6885 2917.9230
 2223.5186 2187.8941 2876.5690 2225.8861 2185.2313 2912.3180
 1593.1966 2577.8346 2987.5890 1590.5860 2579.1768 3006.8370
 1688.6266 2526.2732 2944.3740 1683.6135 2528.9186 2979.8910
 1786.7665 2472.8178 2913.9110 1780.2475 2476.3985 2956.4760
 1875.7970 2422.4729 2909.1570 1869.1956 2426.4087 2951.1910
 1957.6169 2372.9452 2904.8420 1951.5616 2377.1523 2944.7700
 2020.5287 2343.4542 2902.7480 2016.2374 2346.6989 2940.7050
 2083.9064 2331.7945 2900.6320 2081.4629 2333.0098 2935.9170
 2149.4546 2317.0763 2891.9290 2148.5378 2316.6641 2927.2780
 2215.6414 2295.5316 2882.6160 2216.2863 2293.8913 2918.1930
 2273.6342 2278.4704 2874.4350 2276.5042 2275.2057 2911.4670
 1646.1136 2663.8134 2984.5240 1642.3848 2665.6945 3010.0550
 1739.4595 2613.8832 2943.8820 1734.0789 2616.6529 2980.1140
 1829.4690 2565.5715 2926.4800 1823.4611 2568.7663 2966.3130
 1916.6505 2516.7729 2925.1880 1910.5253 2520.3160 2965.7390
 2000.4382 2468.9816 2918.1330 1994.7742 2472.6818 2957.3160
 2075.0038 2433.4677 2913.5280 2069.9856 2436.8644 2955.0160
 2142.4219 2414.9844 2904.5630 2139.5621 2416.3592 2940.1170
 2209.3811 2395.9273 2890.8300 2207.9840 2395.8374 2928.9030
 2272.1695 2377.5085 2881.6130 2272.8426 2375.7253 2921.0970
 2325.7743 2365.3448 2875.9800 2329.4206 2361.2964 2916.8450
 1702.5044 2748.8367 2984.9870 1697.8219 2751.1283 3013.7760
 1795.4623 2699.5459 2956.7270 1789.2649 2702.6264 2993.8650
 1884.3790 2651.9502 2944.1370 1877.0919 2655.6880 2987.3700
 1963.2529 2608.2912 2936.3880 1956.2551 2612.1554 2982.0470
 2041.6230 2565.5531 2928.7420 2035.7076 2569.1363 2972.4330
 2124.1632 2526.1751 2922.9490 2119.2394 2529.1389 2962.8330
 2199.1448 2496.9439 2906.2030 2195.3396 2498.8671 2947.7960
 2267.0724 2473.7405 2889.9520 2265.0876 2474.1214 2933.9630
 2327.7856 2457.3826 2881.6690 2328.5403 2455.5535 2926.2090
 2377.5947 2449.4234 2878.7850 2382.0851 2444.7551 2922.5960
 1757.0794 2835.2227 2997.4030 1750.7877 2838.2032 3032.3450
 1848.3026 2787.3558 2980.1510 1841.0940 2790.8013 3019.1400
 1933.4926 2742.0999 2963.3080 1925.5363 2745.9925 3007.4160
 2000.2096 2703.5719 2952.2560 1993.6399 2707.1308 2998.4600
 2071.4506 2663.0207 2943.1530 2066.3690 2666.2501 2989.9560
 2169.2322 2613.2102 2926.4360 2163.8263 2616.6996 2972.0700
 2251.6143 2576.7022 2900.0390 2247.1972 2579.3650 2946.3790
 2313.9836 2555.2892 2890.2640 2312.2683 2555.9227 2936.4160
 2373.3046 2539.6710 2884.7230 2374.7878 2537.7974 2930.8510
 2422.6808 2533.2396 2883.1980 2428.3683 2528.1488 2927.7340
 1840.9100 2908.3530 2847.6770 1644.0710 2998.8890 3859.6460
 1930.5930 2861.4950 2823.5330 1733.4490 2952.8460 3837.4010
 2003.0780 2821.7920 2808.7020 1828.5550 2905.0310 3808.6580
 2047.9410 2791.5280 2800.1410 1935.5230 2853.3730 3775.3270
 2108.0230 2752.3560 2790.9870 2040.2120 2803.6830 3746.1080
 2222.1100 2688.1560 2765.2800 2128.2940 2762.0830 3725.3050
 2307.1770 2646.2920 2744.1730 2227.8680 2711.9440 3704.5700
 2347.1260 2639.1840 2739.5060 2344.4880 2650.2490 3680.6710
 2393.5200 2634.5060 2735.7140 2462.4020 2588.9100 3655.2430
 2432.5600 2637.2220 2729.3100 2584.1760 2526.2070 3626.4030
/

ZCORN
 3099.3940 3083.4390 3083.4390 3025.4470 2998.9230 2918.5910 2935.2860 2897.6460
 2887.1220 2876.7940 2856.9350 2855.0660 2834.0830 2831.3480 2862.3680 2873.9000
 2910.9520 2908.1990 3110.4720 3096.6840 3073.2530 2974.9200 2954.7200 2896.3510
 2911.4160 2900.0530 2887.3140 2881.5520 2860.2590 2859.8600 2838.0920 2837.7710
 2869.2550 2878.9580 2906.7560 2906.0720 3110.4720 3096.6830 3074.1760 2975.5040
 2969.1130 2908.4810 2903.6440 2889.3900 2869.9550 2862.1920 2842.2920 2841.3480
 2822.6170 2821.7980 2844.3950 2853.6900 2906.7560 2906.0720 3125.4560 3074.9630
 3029.4650 2942.7860 2937.0160 2912.2580 2906.0790 2899.5460 2878.8650 2874.7990
 2854.2830 2847.7510 2826.8130 2826.8040 2851.0100 2859.6900 2915.9610 2913.3550
 3125.4560 3063.9240 3014.3630 2932.9240 2934.4040 2909.0630 2889.4050 2879.4790
 2856.6050 2851.6450 2833.9080 2825.0920 2825.0870 2825.1440 2834.3570 2845.4110
 2915.9610 2913.3550 3103.1130 3004.3500 2966.5720 2924.6920 2926.3970 2913.9720
 2892.4330 2887.9640 2865.4040 2865.1110 2846.8050 2838.1590 2838.1290 2836.6170
 2846.4480 2855.3060 2929.0470 2921.8220 3055.2920 2968.2460 2971.8340 2930.0350
 2912.7190 2897.8720 2874.0900 2868.6000 2846.4990 2846.8050 2846.7900 2838.1300
 2838.1260 2836.6160 2840.7940 2849.5820 2917.8830 2921.8220 2999.0350 2953.2910
 2956.8710 2940.5110 2919.7300 2906.7380 2880.4510 2877.0420 2852.1160 2854.3670
 2854.3280 2846.9040 2846.8970 2848.7430 2853.4840 2861.6510 2930.4430 2923.5070
 3011.8830 2967.9430 2948.1200 2930.0050 2903.8010 2889.1140 2864.0250 2859.5390
 2852.1040 2854.3310 2854.3240 2846.8990 2846.8970 2848.7430 2848.7490 2857.1760
 2914.4020 2923.5070 2993.2460 2976.1930 2953.3720 2935.4740 2906.5100 2895.8720
 2869.2900 2865.5860 2857.5800 2860.5620 2860.5520 2861.1270 2861.1250 2863.4410
 2863.4410 2863.4030 2919.9120 2925.9000 2983.9850 2962.6710 2939.5890 2919.7020
 2893.4120 2881.7600 2861.6270 2857.5880 2857.5770 2860.5560 2860.5500 2861.1250
 2861.1250 2863.4410 2863.4410 2863.3650 2899.3540 2908.8180 3000.8230 2976.3090
 2949.8490 2929.4130 2901.2950 2890.4040 2868.6890 2865.7380 2865.7230 2864.7400
 2864.7340 2867.2780 2867.2780 2875.4810 2875.4810 2871.8000 2912.3380 2915.1770
 2985.4540 2957.5670 2936.8400 2915.3180 2889.3980 2878.1950 2868.6860 2865.7260
 2865.7200 2864.7340 2864.7340 2867.2780 2867.2780 2875.4810 2875.4810 2871.8000
 2896.2910 2900.5710 2993.7010 2968.8930 2946.7500 2925.7620 2897.5770 2890.1250
 2880.2720 2880.9050 2880.8990 2879.1840 2879.1830 2879.5280 2879.5280 2879.2970
 2879.2970 2876.0350 2900.5540 2904.8250 2985.7850 2958.7300 2939.3890 2917.4010
 2891.1620 2883.2200 2880.2710 2880.9020 2880.8980 2879.1830 2879.1830 2879.5280
 2879.5280 2879.2970 2879.2970 2876.0350 2891.4100 2896.5790 2985.1890 2960.1460
 2939.8470 2920.5160 2892.6190 2886.6210 2883.7720 2883.4030 2883.4000 2884.2110
 2884.2110 2887.0460 2887.0460 2887.0110 2887.0110 2877.5590 2893.0180 2893.0390
 2974.8430 2944.7350 2930.0890 2909.2810 2890.0830 2883.7770 2883.7710 2883.4010
 2883.4000 2884.2110 2884.2110 2887.0460 2887.0460 2887.0110 2887.0110 2877.5590
 2877.5900 2877.5810 2992.6460 2963.1730 2947.3830 2925.0630 2905.3950 2899.6050
 2899.6000 2895.3020 2895.3010 2893.9910 2893.9910 2896.1210 2896.1210 2892.9410
 2892.9410 2882.8150 2882.9120 2876.5690 2976.2940 2939.2390 2932.1920 2907.8080
 2905.3940 2899.6020 2899.6000 2895.3010 2895.3010 2893.9910 2893.9910 2896.1210
 2896.1210 2892.9410 2892.9410 2882.8150 2882.8150 2876.5560 2987.5890 2951.6200
 2944.3740 2916.2000 2913.9110 2909.1570 2909.1570 2904.8420 2904.8420 2902.7480
 2902.7480 2900.6320 2900.6320 2891.9290 2891.9290 2882.6160 2882.6160 2874.4350
 2981.1120 2942.4840 2942.4840 2913.9110 2913.9110 2909.1570 2909.1570 2904.8420
 2904.8420 2902.7480 2902.7480 2900.6320 2900.6320 2891.9290 2891.9290 2882.6160
 2882.6160 2874.4350 2984.5240 2943.8820 2943.8820 2926.4790 2926.4800 2925.1880
 2925.1880 2918.1330 2918.1330 2913.5280 2913.5280 2904.5630 2904.5630 2890.8300
 2890.8300 2881.6130 2881.6130 2875.9800 2984.5240 2943.8820 2943.8820 2926.4800
 2926.4800 2925.1880 2925.1880 2918.1330 2918.1330 2913.5280 2913.5280 2904.5630
 2904.5630 2890.8300 2890.8300 2881.6130 2881.6130 2875.9800 2984.9870 2956.7270
 2956.7270 2944.1370 2944.1370 2936.3880 2936.3880 2928.7420 2928.7420 2922.9490
 2922.9490 2906.2030 2906.2030 2889.9520 2889.9520 2881.6690 2881.6690 2878.7850
 2984.9870 2956.7270 2956.7270 2944.1370 2944.1370 2936.3880 2936.3880 2928.7420
 2928.7420 2922.9490 2922.9490 2906.2030 2906.2030 2889.9520 2889.9520 2881.6690
 2881.6690 2878.7850 2997.4030 2980.1510 2980.1510 2963.3080 2963.3080 2952.2560
 2952.2560 2943.1530 2943.1530 2926.4360 2926.4360 2900.0390 2900.0390 2890.2640
 2890.2640 2884.7230 2884.7230 2883.1980 3103.0400 3087.1840 3087.1840 3025.4470
 2998.9230 2918.5910 2935.2860 2897.6460 2887.1220 2876.7940 2856.9350 2855.0660
 2834.0830 2831.3480 2862.3680 2873.9000 2913.8080 2911.1550 3114.0970 3100.4040
 3073.2530 2974.9200 2954.7200 2896.3510 2911.4160 2900.0530 2887.3140 2881.5520
 2860.2590 2859.8600 2838.0920 2837.7710 2869.2550 2878.9580 2909.6850 2909.0130
 3114.0970 3100.4030 3074.1760 2975.5040 2969.1130 2908.4810 2903.6440 2889.3900
 2869.9550 2862.1920 2842.2920 2841.3480 2822.6170 2821.7980 2844.3950 2853.6900
 2909.6850 2909.0130 3129.0470 3074.9630 3029.4650 2942.7860 2937.0160 2912.2580
 2906.0790 2899.5460 2878.8650 2874.7990 2854.2830 2847.7510 2826.8130 2826.8040
 2851.0100 2859.6900 2918.9850 2916.3620 3129.0470 3063.9240 3014.3630 2932.9240
 2934.4040 2909.0630 2889.4050 2879.4790 2856.6050 2851.6450 2835.8510 2826.8100
 2826.8070 2826.8020 2834.3570 2845.4110 2918.9850 2916.3620 3103.1130 3004.3500
 2966.5720 2924.6920 2926.3970 2913.9720 2892.4330 2887.9640 2865.4040 2865.1110
 2849.2270 2840.3390 2840.3240 2838.6400 2846.4480 2855.3060 2929.0470 2924.9190
 3055.2920 2968.2460 2971.8340 2930.0350 2912.7190 2897.8720 2874.0900 2868.6000
 2848.8110 2849.2270 2849.2190 2840.3240 2840.3230 2838.6390 2840.7940 2849.5820
 2917.8830 2924.9190 2999.0350 2953.2910 2956.8710 2940.5110 2919.7300 2906.7380
 2880.4510 2877.0420 2854.7690 2857.1090 2857.0900 2849.3920 2849.3890 2851.0930
 2853.4840 2861.6510 2930.4430 2926.4640 3011.8830 2967.9430 2948.1200 2930.0050
 2903.8010 2889.1140 2864.0250 2859.5390 2854.7630 2857.0910 2857.0880 2849.3900
 2849.3890 2851.0930 2851.0960 2859.3720 2914.4020 2926.4640 2993.2460 2976.1930
 2953.3720 2935.4740 2906.5100 2895.8720 2869.2900 2865.5860 2860.5190 2863.5950
 2863.5910 2863.8790 2863.8780 2866.0000 2866.0000 2865.6920 2919.9120 2928.6500
 2983.9850 2962.6710 2939.5890 2919.7020 2893.4120 2881.7600 2864.5930 2860.5230
 2860.5170 2863.5920 2863.5900 2863.8780 2863.8780 2866.0000 2866.0000 2865.6730
 2899.3540 2908.8180 3000.8230 2976.3090 2949.8490 2929.4130 2901.2950 2890.4040
 2871.6840 2868.6720 2868.6650 2867.6330 2867.6300 2870.0310 2870.0310 2878.0740
 2878.0740 2874.1060 2912.3380 2915.1770 2985.4540 2957.5670 2936.8400 2915.3180
 2889.3980 2878.1950 2871.6820 2868.6670 2868.6640 2867.6300 2867.6300 2870.0310
 2870.0310 2878.0740 2878.0740 2874.1060 2896.2910 2900.5710 2993.7010 2968.8930
 2946.7500 2925.7620 2897.5770 2890.1250 2883.2070 2883.8850 2883.8820 2882.1720
 2882.1720 2882.3760 2882.3760 2881.9570 2881.9570 2878.4160 2900.5540 2904.8250
 2985.7850 2958.7300 2939.3890 2917.4010 2891.1620 2883.2200 2883.2070 2883.8830
 2883.8820 2882.1720 2882.1720 2882.3760 2882.3760 2881.9570 2881.9570 2878.4160
 2891.4100 2896.5790 2985.1890 2960.1460 2939.8470 2920.5160 2892.6190 2886.6210
 2886.6050 2886.2650 2886.2640 2887.1060 2887.1060 2889.8350 2889.8350 2889.6480
 2889.6480 2879.9320 2893.0180 2893.0390 2974.8430 2944.7350 2930.0890 2909.2810
 2892.6160 2886.6070 2886.6040 2886.2640 2886.2640 2887.1060 2887.1060 2889.8350
 2889.8350 2889.6480 2889.6480 2879.9320 2879.9470 2879.7660 2992.6460 2963.1730
 2947.3830 2925.0630 2907.8060 2902.3460 2902.3440 2898.0480 2898.0470 2896.7210
 2896.7210 2898.8440 2898.8440 2895.5420 2895.5420 2885.2130 2885.2610 2878.7870
 2976.2940 2939.2390 2932.1920 2907.8080 2907.8050 2902.3440 2902.3440 2898.0470
 2898.0470 2896.7210 2896.7210 2898.8440 2898.8440 2895.5420 2895.5420 2885.2130
 2885.2130 2878.7810 2987.5890 2951.6200 2944.3740 2916.2000 2916.1990 2911.7410
 2911.7410 2907.4290 2907.4290 2905.3500 2905.3500 2903.2700 2903.2700 2894.4410
 2894.4410 2885.0080 2885.0080 2876.6620 2982.3390 2944.3740 2944.3740 2916.2000
 2916.1990 2911.7410 2911.7410 2907.4290 2907.4290 2905.3500 2905.3500 2903.2700
 2903.2700 2894.4410 2894.4410 2885.0080 2885.0080 2876.6620 2985.9900 2945.8260
 2945.8260 2928.8810 2928.8810 2927.6800 2927.6800 2920.5870 2920.5870 2916.0430
 2916.0430 2907.1540 2907.1540 2893.2660 2893.2660 2883.9850 2883.9850 2878.2780
 2985.9900 2945.8260 2945.8260 2928.8810 2928.8810 2927.6800 2927.6800 2920.5870
 2920.5870 2916.0430 2916.0430 2907.1540 2907.1540 2893.2660 2893.2660 2883.9850
 2883.9850 2878.2780 2986.9460 2958.9790 2958.9790 2946.4580 2946.4580 2938.7380
 2938.7380 2931.0680 2931.0680 2925.3380 2925.3380 2908.6150 2908.6150 2892.2420
 2892.2420 2883.9400 2883.9400 2881.0640 2986.9460 2958.9790 2958.9790 2946.4580
 2946.4580 2938.7380 2938.7380 2931.0680 2931.0680 2925.3380 2925.3380 2908.6150
 2908.6150 2892.2420 2892.2420 2883.9400 2883.9400 2881.0640 2999.4840 2982.4630
 2982.4630 2965.5920 2965.5920 2954.4930 2954.4930 2945.3840 2945.3840 2928.6800
 2928.6800 2902.2600 2902.2600 2892.4110 2892.4110 2886.8750 2886.8750 2885.4190
 3103.0400 3087.1840 3087.1840 3025.4470 2998.9230 2918.5910 2935.2860 2897.6460
 2887.1220 2876.7940 2856.9350 2855.0660 2834.0830 2831.3480 2862.3680 2873.9000
 2913.8080 2911.1550 3114.0970 3100.4040 3073.2530 2974.9200 2954.7200 2896.3510
 2911.4160 2900.0530 2887.3140 2881.5520 2860.2590 2859.8600 2838.0920 2837.7710
 2869.2550 2878.9580 2909.6850 2909.0130 3114.0970 3100.4030 3074.1760 2975.5040
 2969.1130 2908.4810 2903.6440 2889.3900 2869.9550 2862.1920 2842.2920 2841.3480
 2822.6170 2821.7980 2844.3950 2853.6900 2909.6850 2909.0130 3129.0470 3074.9630
 3029.4650 2942.7860 2937.0160 2912.2580 2906.0790 2899.5460 2878.8650 2874.7990
 2854.2830 2847.7510 2826.8130 2826.8040 2851.0100 2859.6900 2918.9850 2916.3620
 3129.0470 3063.9240 3014.3630 2932.9240 2934.4040 2909.0630 2889.4050 2879.4790
 2856.6050 2851.6450 2835.8510 2826.8100 2826.8070 2826.8020 2834.3570 2845.4110
 2918.9850 2916.3620 3103.1130 3004.3500 2966.5720 2924.6920 2926.3970 2913.9720
 2892.4330 2887.9640 2865.4040 2865.1110 2849.2270 2840.3390 2840.3240 2838.6400
 2846.4480 2855.3060 2929.0470 2924.9190 3055.2920 2968.2460 2971.8340 2930.0350
 2912.7190 2897.8720 2874.0900 2868.6000 2848.8110 2849.2270 2849.2190 2840.3240
 2840.3230 2838.6390 2840.7940 2849.5820 2917.8830 2924.9190 2999.0350 2953.2910
 2956.8710 2940.5110 2919.7300 2906.7380 2880.4510 2877.0420 2854.7690 2857.1090
 2857.0900 2849.3920 2849.3890 2851.0930 2853.4840 2861.6510 2930.4430 2926.4640
 3011.8830 2967.9430 2948.1200 2930.0050 2903.8010 2889.1140 2864.0250 2859.5390
 2854.7630 2857.0910 2857.0880 2849.3900 2849.3890 2851.0930 2851.0960 2859.3720
 2914.4020 2926.4640 2993.2460 2976.1930 2953.3720 2935.4740 2906.5100 2895.8720
 2869.2900 2865.5860 2860.5190 2863.5950 2863.5910 2863.8790 2863.8780 2866.0000
 2866.0000 2865.6920 2919.9120 2928.6500 2983.9850 2962.6710 2939.5890 2919.7020
 2893.4120 2881.7600 2864.5930 2860.5230 2860.5170 2863.5920 2863.5900 2863.8780
 2863.8780 2866.0000 2866.0000 2865.6730 2899.3540 2908.8180 3000.8230 2976.3090
 2949.8490 2929.4130 2901.2950 2890.4040 2871.6840 2868.6720 2868.6650 2867.6330
 2867.6300 2870.0310 2870.0310 2878.0740 2878.0740 2874.1060 2912.3380 2915.1770
 2985.4540 2957.5670 2936.8400 2915.3180 2889.3980 2878.1950 2871.6820 2868.6670
 2868.6640 2867.6300 2867.6300 2870.0310 2870.0310 2878.0740 2878.0740 2874.1060
 2896.2910 2900.5710 2993.7010 2968.8930 2946.7500 2925.7620 2897.5770 2890.1250
 2883.2070 2883.8850 2883.8820 2882.1720 2882.1720 2882.3760 2882.3760 2881.9570
 2881.9570 2878.4160 2900.5540 2904.8250 2985.7850 2958.7300 2939.3890 2917.4010
 2891.1620 2883.2200 2883.2070 2883.8830 2883.8820 2882.1720 2882.1720 2882.3760
 2882.3760 2881.9570 2881.9570 2878.4160 2891.4100 2896.5790 2985.1890 2960.1460
 2939.8470 2920.5160 2892.6190 2886.6210 2886.6050 2886.2650 2886.2640 2887.1060
 2887.1060 2889.8350 2889.8350 2889.6480 2889.6480 2879.9320 2893.0180 2893.0390
 2974.8430 2944.7350 2930.0890 2909.2810 2892.6160 2886.6070 2886.6040 2886.2640
 2886.2640 2887.1060 2887.1060 2889.8350 2889.8350 2889.6480 2889.6480 2879.9320
 2879.9470 2879.7660 2992.6460 2963.1730 2947.3830 2925.0630 2907.8060 2902.3460
 2902.3440 2898.0480 2898.0470 2896.7210 2896.7210 2898.8440 2898.8440 2895.5420
 2895.5420 2885.2130 2885.2610 2878.7870 2976.2940 2939.2390 2932.1920 2907.8080
 2907.8050 2902.3440 2902.3440 2898.0470 2898.0470 2896.7210 2896.7210 2898.8440
 2898.8440 2895.5420 2895.5420 2885.2130 2885.2130 2878.7810 2987.5890 2951.6200
 2944.3740 2916.2000 2916.1990 2911.7410 2911.7410 2907.4290 2907.4290 2905.3500
 2905.3500 2903.2700 2903.2700 2894.4410 2894.4410 2885.0080 2885.0080 2876.6620
 2982.3390 2944.3740 2944.3740 2916.2000 2916.1990 2911.7410 2911.7410 2907.4290
 2907.4290 2905.3500 2905.3500 2903.2700 2903.2700 2894.4410 2894.4410 2885.0080
 2885.0080 2876.6620 2985.9900 2945.8260 2945.8260 2928.8810 2928.8810 2927.6800
 2927.6800 2920.5870 2920.5870 2916.0430 2916.0430 2907.1540 2907.1540 2893.2660
 2893.2660 2883.9850 2883.9850 2878.2780 2985.9900 2945.8260 2945.8260 2928.8810
 2928.8810 2927.6800 2927.6800 2920.5870 2920.5870 2916.0430 2916.0430 2907.1540
 2907.1540 2893.2660 2893.2660 2883.9850 2883.9850 2878.2780 2986.9460 2958.9790
 2958.9790 2946.4580 2946.4580 2938.7380 2938.7380 2931.0680 2931.0680 2925.3380
 2925.3380 2908.6150 2908.6150 2892.2420 2892.2420 2883.9400 2883.9400 2881.0640
 2986.9460 2958.9790 2958.9790 2946.4580 2946.4580 2938.7380 2938.7380 2931.0680
 2931.0680 2925.3380 2925.3380 2908.6150 2908.6150 2892.2420 2892.2420 2883.9400
 2883.9400 2881.0640 2999.4840 2982.4630 2982.4630 2965.5920 2965.5920 2954.4930
 2954.4930 2945.3840 2945.3840 2928.6800 2928.6800 2902.2600 2902.2600 2892.4110
 2892.4110 2886.8750 2886.8750 2885.4190 3106.6860 3090.9280 3090.9280 3025.4470
 2998.9230 2918.5910 2935.2860 2897.6460 2887.1220 2876.7940 2856.9350 2855.0660
 2834.0830 2831.3480 2862.3680 2873.9000 2916.6650 2914.1100 3117.7220 3102.0650
 3073.2530 2974.9200 2954.7200 2896.3510 2911.4160 2900.0530 2887.3140 2881.5520
 2860.2590 2859.8600 2838.0920 2837.7710 2869.2550 2878.9580 2912.6140 2911.9540
 3117.7220 3104.1230 3074.1760 2975.5040 2969.1130 2908.4810 2903.6440 2889.3900
 2869.9550 2862.1920 2842.2920 2841.3480 2824.1520 2823.2870 2844.3950 2853.6900
 2912.6140 2911.9540 3132.6380 3074.9630 3029.4650 2942.7860 2937.0160 2912.2580
 2906.0790 2899.5460 2878.8650 2874.7990 2854.2830 2847.7510 2828.5280 2828.4590
 2851.0100 2859.6900 2922.0090 2919.3670 3132.6380 3063.9240 3014.3630 2932.9240
 2934.4040 2909.0630 2889.4050 2879.4790 2856.6050 2851.6450 2837.7940 2828.5280
 2828.5280 2828.4590 2834.3570 2845.4110 2922.0090 2919.3670 3103.1130 3004.3500
 2966.5720 2924.6920 2926.3970 2913.9720 2892.4330 2887.9640 2865.4040 2865.1110
 2851.6490 2842.5190 2842.5190 2840.6620 2846.4480 2855.3060 2929.0470 2928.0160
 3055.2920 2968.2460 2971.8340 2930.0350 2912.7190 2897.8720 2874.0900 2868.6000
 2851.1230 2851.6490 2851.6490 2842.5190 2842.5190 2840.6620 2840.7940 2849.5820
 2917.8830 2928.0160 2999.0350 2953.2910 2956.8710 2940.5110 2919.7300 2906.7380
 2880.4510 2877.0420 2857.4220 2859.8520 2859.8520 2851.8800 2851.8800 2853.4400
 2853.4840 2861.6510 2930.4430 2929.4200 3011.8830 2967.9430 2948.1200 2930.0050
 2903.8010 2889.1140 2864.0250 2859.5390 2857.4220 2859.8520 2859.8520 2851.8800
 2851.8800 2853.4400 2853.4400 2861.5680 2914.4020 2929.4200 2993.2460 2976.1930
 2953.3720 2935.4740 2906.5100 2895.8720 2869.2900 2865.5860 2863.4580 2866.6290
 2866.6290 2866.6300 2866.6300 2868.5590 2868.5590 2867.9790 2919.9120 2930.6290
 2983.9850 2962.6710 2939.5890 2919.7020 2893.4120 2881.7600 2867.5580 2863.4580
 2863.4580 2866.6290 2866.6290 2866.6300 2866.6300 2868.5590 2868.5590 2867.9790
 2899.3540 2908.8180 3000.8230 2976.3090 2949.8490 2929.4130 2901.2950 2890.4040
 2874.6780 2871.6070 2871.6070 2870.5260 2870.5260 2872.7850 2872.7850 2880.6670
 2880.6670 2876.4110 2912.3380 2915.1770 2985.4540 2957.5670 2936.8400 2915.3180
 2889.3980 2878.1950 2874.6780 2871.6070 2871.6070 2870.5260 2870.5260 2872.7850
 2872.7850 2880.6670 2880.6670 2876.4110 2896.2910 2900.5710 2993.7010 2968.8930
 2946.7500 2925.7620 2897.5770 2890.1250 2886.1420 2886.8650 2886.8650 2885.1610
 2885.1610 2885.2250 2885.2250 2884.6170 2884.6170 2880.7970 2900.5540 2904.8250
 2985.7850 2958.7300 2939.3890 2917.4010 2893.8290 2886.1420 2886.1420 2886.8650
 2886.8650 2885.1610 2885.1610 2885.2250 2885.2250 2884.6170 2884.6170 2880.7970
 2891.4100 2896.5790 2985.1890 2960.1460 2939.8470 2920.5160 2895.1490 2889.4380
 2889.4380 2889.1270 2889.1270 2890.0000 2890.0000 2892.6240 2892.6240 2892.2840
 2892.2840 2882.3050 2893.0180 2893.0390 2974.8430 2944.7350 2930.0890 2909.2810
 2895.1490 2889.4380 2889.4380 2889.1270 2889.1270 2890.0000 2890.0000 2892.6240
 2892.6240 2892.2840 2892.2840 2882.3050 2882.3050 2881.9510 2992.6460 2963.1730
 2947.3830 2925.0630 2910.2200 2905.0870 2905.0870 2900.7930 2900.7930 2899.4510
 2899.4510 2901.5670 2901.5670 2898.1430 2898.1430 2887.6110 2887.6110 2881.0060
 2976.2940 2939.2390 2934.1270 2910.2200 2910.2200 2905.0870 2905.0870 2900.7930
 2900.7930 2899.4510 2899.4510 2901.5670 2901.5670 2898.1430 2898.1430 2887.6110
 2887.6110 2881.0060 2987.5890 2951.6200 2946.2640 2918.4900 2918.4900 2914.3260
 2914.3260 2910.0160 2910.0160 2907.9510 2907.9510 2905.9080 2905.9080 2896.9530
 2896.9530 2887.3990 2887.3990 2878.8880 2983.5660 2946.2640 2946.2640 2918.4900
 2918.4900 2914.3260 2914.3260 2910.0160 2910.0160 2907.9510 2907.9510 2905.9080
 2905.9080 2896.9530 2896.9530 2887.3990 2887.3990 2878.8880 2987.4570 2947.7670
 2947.7670 2931.2840 2931.2840 2930.1710 2930.1710 2923.0410 2923.0410 2918.5590
 2918.5590 2909.7450 2909.7450 2895.7020 2895.7020 2886.3570 2886.3570 2880.5760
 2987.4570 2947.7670 2947.7670 2931.2840 2931.2840 2930.1710 2930.1710 2923.0410
 2923.0410 2918.5590 2918.5590 2909.7450 2909.7450 2895.7020 2895.7020 2886.3570
 2886.3570 2880.5760 2988.9050 2961.2290 2961.2290 2948.7800 2948.7800 2941.0870
 2941.0870 2933.3940 2933.3940 2927.7270 2927.7270 2911.0280 2911.0280 2894.5310
 2894.5310 2886.2120 2886.2120 2883.3440 2988.9050 2961.2290 2961.2290 2948.7800
 2948.7800 2941.0870 2941.0870 2933.3940 2933.3940 2927.7270 2927.7270 2911.0280
 2911.0280 2894.5310 2894.5310 2886.2120 2886.2120 2883.3440 3001.5650 2984.7750
 2984.7750 2967.8760 2967.8760 2956.7310 2956.7310 2947.6160 2947.6160 2930.9240
 2930.9240 2904.4800 2904.4800 2894.5580 2894.5580 2889.0260 2889.0260 2887.6390
 3106.6860 3090.9280 3090.9280 3025.4470 2998.9230 2918.5910 2935.2860 2897.6460
 2887.1220 2876.7940 2856.9350 2855.0660 2834.0830 2831.3480 2862.3680 2873.9000
 2916.6650 2914.1100 3117.7220 3102.0650 3073.2530 2974.9200 2954.7200 2896.3510
 2911.4160 2900.0530 2887.3140 2881.5520 2860.2590 2859.8600 2838.0920 2837.7710
 2869.2550 2878.9580 2912.6140 2911.9540 3117.7220 3104.1230 3074.1760 2975.5040
 2969.1130 2908.4810 2903.6440 2889.3900 2869.9550 2862.1920 2842.2920 2841.3480
 2824.1520 2823.2870 2844.3950 2853.6900 2912.6140 2911.9540 3132.6380 3074.9630
 3029.4650 2942.7860 2937.0160 2912.2580 2906.0790 2899.5460 2878.8650 2874.7990
 2854.2830 2847.7510 2828.5280 2828.4590 2851.0100 2859.6900 2922.0090 2919.3670
 3132.6380 3063.9240 3014.3630 2932.9240 2934.4040 2909.0630 2889.4050 2879.4790
 2856.6050 2851.6450 2837.7940 2828.5280 2828.5280 2828.4590 2834.3570 2845.4110
 2922.0090 2919.3670 3103.1130 3004.3500 2966.5720 2924.6920 2926.3970 2913.9720
 2892.4330 2887.9640 2865.4040 2865.1110 2851.6490 2842.5190 2842.5190 2840.6620
 2846.4480 2855.3060 2929.0470 2928.0160 3055.2920 2968.2460 2971.8340 2930.0350
 2912.7190 2897.8720 2874.0900 2868.6000 2851.1230 2851.6490 2851.6490 2842.5190
 2842.5190 2840.6620 2840.7940 2849.5820 2917.8830 2928.0160 2999.0350 2953.2910
 2956.8710 2940.5110 2919.7300 2906.7380 2880.4510 2877.0420 2857.4220 2859.8520
 2859.8520 2851.8800 2851.8800 2853.4400 2853.4840 2861.6510 2930.4430 2929.4200
 3011.8830 2967.9430 2948.1200 2930.0050 2903.8010 2889.1140 2864.0250 2859.5390
 2857.4220 2859.8520 2859.8520 2851.8800 2851.8800 2853.4400 2853.4400 2861.5680
 2914.4020 2929.4200 2993.2460 2976.1930 2953.3720 2935.4740 2906.5100 2895.8720
 2869.2900 2865.5860 2863.4580 2866.6290 2866.6290 2866.6300 2866.6300 2868.5590
 2868.5590 2867.9790 2919.9120 2930.6290 2983.9850 2962.6710 2939.5890 2919.7020
 2893.4120 2881.7600 2867.5580 2863.4580 2863.4580 2866.6290 2866.6290 2866.6300
 2866.6300 2868.5590 2868.5590 2867.9790 2899.3540 2908.8180 3000.8230 2976.3090
 2949.8490 2929.4130 2901.2950 2890.4040 2874.6780 2871.6070 2871.6070 2870.5260