-- This reservoir simulation deck is made available under the Open Database
-- License: http://opendatacommons.org/licenses/odbl/1.0/. Any rights in
-- individual contents of the database are licensed under the Database Contents
-- License: http://opendatacommons.org/licenses/dbcl/1.0/

-- Copyright (C) 2016 Statoil

-- NOTE: This deck is currently not supported by the OPM
-- simulator flow due to lack of support for LGR.


NOECHO

-- =============================================================================
-- 
-- Exported from SIMPLE_BOX_SHIFTTOP
-- 
-- Exported by user cfbe from RMS2013.1 at 2016-05-25 14:26:42
-- 
-- =============================================================================

MAPUNITS
'METRES  ' /

MAPAXES
   0.000    0.000
   0.000  200.000
 200.000  200.000 /

GRIDUNIT
'METRES  ' '        ' /

SPECGRID
  20  20  10   1  F  /

GDORIENT
INC INC INC DOWN LEFT /

COORD
        0.000       200.000       0.500         0.000       200.000      10.500
       10.000       200.000       0.500        10.000       200.000      10.500
       20.000       200.000       0.500        20.000       200.000      10.500
       30.000       200.000       0.500        30.000       200.000      10.500
       40.000       200.000       0.500        40.000       200.000      10.500
       50.000       200.000       0.500        50.000       200.000      10.500
       60.000       200.000       0.500        60.000       200.000      10.500
       70.000       200.000       0.500        70.000       200.000      10.500
       80.000       200.000       0.500        80.000       200.000      10.500
       90.000       200.000       0.500        90.000       200.000      10.500
      100.000       200.000       0.000       100.000       200.000      10.500
      110.000       200.000       0.000       110.000       200.000      10.000
      120.000       200.000       0.000       120.000       200.000      10.000
      130.000       200.000       0.000       130.000       200.000      10.000
      140.000       200.000       0.000       140.000       200.000      10.000
      150.000       200.000       0.000       150.000       200.000      10.000
      160.000       200.000       0.000       160.000       200.000      10.000
      170.000       200.000       0.000       170.000       200.000      10.000
      180.000       200.000       0.000       180.000       200.000      10.000
      190.000       200.000       0.000       190.000       200.000      10.000
      200.000       200.000       0.000       200.000       200.000      10.000
        0.000       190.000       0.500         0.000       190.000      10.500
       10.000       190.000       0.500        10.000       190.000      10.500
       20.000       190.000       0.500        20.000       190.000      10.500
       30.000       190.000       0.500        30.000       190.000      10.500
       40.000       190.000       0.500        40.000       190.000      10.500
       50.000       190.000       0.500        50.000       190.000      10.500
       60.000       190.000       0.500        60.000       190.000      10.500
       70.000       190.000       0.500        70.000       190.000      10.500
       80.000       190.000       0.500        80.000       190.000      10.500
       90.000       190.000       0.500        90.000       190.000      10.500
      100.000       190.000       0.000       100.000       190.000      10.500
      110.000       190.000       0.000       110.000       190.000      10.000
      120.000       190.000       0.000       120.000       190.000      10.000
      130.000       190.000       0.000       130.000       190.000      10.000
      140.000       190.000       0.000       140.000       190.000      10.000
      150.000       190.000       0.000       150.000       190.000      10.000
      160.000       190.000       0.000       160.000       190.000      10.000
      170.000       190.000       0.000       170.000       190.000      10.000
      180.000       190.000       0.000       180.000       190.000      10.000
      190.000       190.000       0.000       190.000       190.000      10.000
      200.000       190.000       0.000       200.000       190.000      10.000
        0.000       180.000       0.500         0.000       180.000      10.500
       10.000       180.000       0.500        10.000       180.000      10.500
       20.000       180.000       0.500        20.000       180.000      10.500
       30.000       180.000       0.500        30.000       180.000      10.500
       40.000       180.000       0.500        40.000       180.000      10.500
       50.000       180.000       0.500        50.000       180.000      10.500
       60.000       180.000       0.500        60.000       180.000      10.500
       70.000       180.000       0.500        70.000       180.000      10.500
       80.000       180.000       0.500        80.000       180.000      10.500
       90.000       180.000       0.500        90.000       180.000      10.500
      100.000       180.000       0.000       100.000       180.000      10.500
      110.000       180.000       0.000       110.000       180.000      10.000
      120.000       180.000       0.000       120.000       180.000      10.000
      130.000       180.000       0.000       130.000       180.000      10.000
      140.000       180.000       0.000       140.000       180.000      10.000
      150.000       180.000       0.000       150.000       180.000      10.000
      160.000       180.000       0.000       160.000       180.000      10.000
      170.000       180.000       0.000       170.000       180.000      10.000
      180.000       180.000       0.000       180.000       180.000      10.000
      190.000       180.000       0.000       190.000       180.000      10.000
      200.000       180.000       0.000       200.000       180.000      10.000
        0.000       170.000       0.500         0.000       170.000      10.500
       10.000       170.000       0.500        10.000       170.000      10.500
       20.000       170.000       0.500        20.000       170.000      10.500
       30.000       170.000       0.500        30.000       170.000      10.500
       40.000       170.000       0.500        40.000       170.000      10.500
       50.000       170.000       0.500        50.000       170.000      10.500
       60.000       170.000       0.500        60.000       170.000      10.500
       70.000       170.000       0.500        70.000       170.000      10.500
       80.000       170.000       0.500        80.000       170.000      10.500
       90.000       170.000       0.500        90.000       170.000      10.500
      100.000       170.000       0.000       100.000       170.000      10.500
      110.000       170.000       0.000       110.000       170.000      10.000
      120.000       170.000       0.000       120.000       170.000      10.000
      130.000       170.000       0.000       130.000       170.000      10.000
      140.000       170.000       0.000       140.000       170.000      10.000
      150.000       170.000       0.000       150.000       170.000      10.000
      160.000       170.000       0.000       160.000       170.000      10.000
      170.000       170.000       0.000       170.000       170.000      10.000
      180.000       170.000       0.000       180.000       170.000      10.000
      190.000       170.000       0.000       190.000       170.000      10.000
      200.000       170.000       0.000       200.000       170.000      10.000
        0.000       160.000       0.500         0.000       160.000      10.500
       10.000       160.000       0.500        10.000       160.000      10.500
       20.000       160.000       0.500        20.000       160.000      10.500
       30.000       160.000       0.500        30.000       160.000      10.500
       40.000       160.000       0.500        40.000       160.000      10.500
       50.000       160.000       0.500        50.000       160.000      10.500
       60.000       160.000       0.500        60.000       160.000      10.500
       70.000       160.000       0.500        70.000       160.000      10.500
       80.000       160.000       0.500        80.000       160.000      10.500
       90.000       160.000       0.500        90.000       160.000      10.500
      100.000       160.000       0.000       100.000       160.000      10.500
      110.000       160.000       0.000       110.000       160.000      10.000
      120.000       160.000       0.000       120.000       160.000      10.000
      130.000       160.000       0.000       130.000       160.000      10.000
      140.000       160.000       0.000       140.000       160.000      10.000
      150.000       160.000       0.000       150.000       160.000      10.000
      160.000       160.000       0.000       160.000       160.000      10.000
      170.000       160.000       0.000       170.000       160.000      10.000
      180.000       160.000       0.000       180.000       160.000      10.000
      190.000       160.000       0.000       190.000       160.000      10.000
      200.000       160.000       0.000       200.000       160.000      10.000
        0.000       150.000       0.500         0.000       150.000      10.500
       10.000       150.000       0.500        10.000       150.000      10.500
       20.000       150.000       0.500        20.000       150.000      10.500
       30.000       150.000       0.500        30.000       150.000      10.500
       40.000       150.000       0.500        40.000       150.000      10.500
       50.000       150.000       0.500        50.000       150.000      10.500
       60.000       150.000       0.500        60.000       150.000      10.500
       70.000       150.000       0.500        70.000       150.000      10.500
       80.000       150.000       0.500        80.000       150.000      10.500
       90.000       150.000       0.500        90.000       150.000      10.500
      100.000       150.000       0.000       100.000       150.000      10.500
      110.000       150.000       0.000       110.000       150.000      10.000
      120.000       150.000       0.000       120.000       150.000      10.000
      130.000       150.000       0.000       130.000       150.000      10.000
      140.000       150.000       0.000       140.000       150.000      10.000
      150.000       150.000       0.000       150.000       150.000      10.000
      160.000       150.000       0.000       160.000       150.000      10.000
      170.000       150.000       0.000       170.000       150.000      10.000
      180.000       150.000       0.000       180.000       150.000      10.000
      190.000       150.000       0.000       190.000       150.000      10.000
      200.000       150.000       0.000       200.000       150.000      10.000
        0.000       140.000       0.500         0.000       140.000      10.500
       10.000       140.000       0.500        10.000       140.000      10.500
       20.000       140.000       0.500        20.000       140.000      10.500
       30.000       140.000       0.500        30.000       140.000      10.500
       40.000       140.000       0.500        40.000       140.000      10.500
       50.000       140.000       0.500        50.000       140.000      10.500
       60.000       140.000       0.500        60.000       140.000      10.500
       70.000       140.000       0.500        70.000       140.000      10.500
       80.000       140.000       0.500        80.000       140.000      10.500
       90.000       140.000       0.500        90.000       140.000      10.500
      100.000       140.000       0.000       100.000       140.000      10.500
      110.000       140.000       0.000       110.000       140.000      10.000
      120.000       140.000       0.000       120.000       140.000      10.000
      130.000       140.000       0.000       130.000       140.000      10.000
      140.000       140.000       0.000       140.000       140.000      10.000
      150.000       140.000       0.000       150.000       140.000      10.000
      160.000       140.000       0.000       160.000       140.000      10.000
      170.000       140.000       0.000       170.000       140.000      10.000
      180.000       140.000       0.000       180.000       140.000      10.000
      190.000       140.000       0.000       190.000       140.000      10.000
      200.000       140.000       0.000       200.000       140.000      10.000
        0.000       130.000       0.500         0.000       130.000      10.500
       10.000       130.000       0.500        10.000       130.000      10.500
       20.000       130.000       0.500        20.000       130.000      10.500
       30.000       130.000       0.500        30.000       130.000      10.500
       40.000       130.000       0.500        40.000       130.000      10.500
       50.000       130.000       0.500        50.000       130.000      10.500
       60.000       130.000       0.500        60.000       130.000      10.500
       70.000       130.000       0.500        70.000       130.000      10.500
       80.000       130.000       0.500        80.000       130.000      10.500
       90.000       130.000       0.500        90.000       130.000      10.500
      100.000       130.000       0.000       100.000       130.000      10.500
      110.000       130.000       0.000       110.000       130.000      10.000
      120.000       130.000       0.000       120.000       130.000      10.000
      130.000       130.000       0.000       130.000       130.000      10.000
      140.000       130.000       0.000       140.000       130.000      10.000
      150.000       130.000       0.000       150.000       130.000      10.000
      160.000       130.000       0.000       160.000       130.000      10.000
      170.000       130.000       0.000       170.000       130.000      10.000
      180.000       130.000       0.000       180.000       130.000      10.000
      190.000       130.000       0.000       190.000       130.000      10.000
      200.000       130.000       0.000       200.000       130.000      10.000
        0.000       120.000       0.500         0.000       120.000      10.500
       10.000       120.000       0.500        10.000       120.000      10.500
       20.000       120.000       0.500        20.000       120.000      10.500
       30.000       120.000       0.500        30.000       120.000      10.500
       40.000       120.000       0.500        40.000       120.000      10.500
       50.000       120.000       0.500        50.000       120.000      10.500
       60.000       120.000       0.500        60.000       120.000      10.500
       70.000       120.000       0.500        70.000       120.000      10.500
       80.000       120.000       0.500        80.000       120.000      10.500
       90.000       120.000       0.500        90.000       120.000      10.500
      100.000       120.000       0.000       100.000       120.000      10.500
      110.000       120.000       0.000       110.000       120.000      10.000
      120.000       120.000       0.000       120.000       120.000      10.000
      130.000       120.000       0.000       130.000       120.000      10.000
      140.000       120.000       0.000       140.000       120.000      10.000
      150.000       120.000       0.000       150.000       120.000      10.000
      160.000       120.000       0.000       160.000       120.000      10.000
      170.000       120.000       0.000       170.000       120.000      10.000
      180.000       120.000       0.000       180.000       120.000      10.000
      190.000       120.000       0.000       190.000       120.000      10.000
      200.000       120.000       0.000       200.000       120.000      10.000
        0.000       110.000       0.500         0.000       110.000      10.500
       10.000       110.000       0.500        10.000       110.000      10.500
       20.000       110.000       0.500        20.000       110.000      10.500
       30.000       110.000       0.500        30.000       110.000      10.500
       40.000       110.000       0.500        40.000       110.000      10.500
       50.000       110.000       0.500        50.000       110.000      10.500
       60.000       110.000       0.500        60.000       110.000      10.500
       70.000       110.000       0.500        70.000       110.000      10.500
       80.000       110.000       0.500        80.000       110.000      10.500
       90.000       110.000       0.500        90.000       110.000      10.500
      100.000       110.000       0.000       100.000       110.000      10.500
      110.000       110.000       0.000       110.000       110.000      10.000
      120.000       110.000       0.000       120.000       110.000      10.000
      130.000       110.000       0.000       130.000       110.000      10.000
      140.000       110.000       0.000       140.000       110.000      10.000
      150.000       110.000       0.000       150.000       110.000      10.000
      160.000       110.000       0.000       160.000       110.000      10.000
      170.000       110.000       0.000       170.000       110.000      10.000
      180.000       110.000       0.000       180.000       110.000      10.000
      190.000       110.000       0.000       190.000       110.000      10.000
      200.000       110.000       0.000       200.000       110.000      10.000
        0.000       100.000       0.500         0.000       100.000      10.500
       10.000       100.000       0.500        10.000       100.000      10.500
       20.000       100.000       0.500        20.000       100.000      10.500
       30.000       100.000       0.500        30.000       100.000      10.500
       40.000       100.000       0.500        40.000       100.000      10.500
       50.000       100.000       0.500        50.000       100.000      10.500
       60.000       100.000       0.500        60.000       100.000      10.500
       70.000       100.000       0.500        70.000       100.000      10.500
       80.000       100.000       0.500        80.000       100.000      10.500
       90.000       100.000       0.500        90.000       100.000      10.500
      100.000       100.000       0.000       100.000       100.000      10.500
      110.000       100.000       0.000       110.000       100.000      10.000
      120.000       100.000       0.000       120.000       100.000      10.000
      130.000       100.000       0.000       130.000       100.000      10.000
      140.000       100.000       0.000       140.000       100.000      10.000
      150.000       100.000       0.000       150.000       100.000      10.000
      160.000       100.000       0.000       160.000       100.000      10.000
      170.000       100.000       0.000       170.000       100.000      10.000
      180.000       100.000       0.000       180.000       100.000      10.000
      190.000       100.000       0.000       190.000       100.000      10.000
      200.000       100.000       0.000       200.000       100.000      10.000
        0.000        90.000       0.500         0.000        90.000      10.500
       10.000        90.000       0.500        10.000        90.000      10.500
       20.000        90.000       0.500        20.000        90.000      10.500
       30.000        90.000       0.500        30.000        90.000      10.500
       40.000        90.000       0.500        40.000        90.000      10.500
       50.000        90.000       0.500        50.000        90.000      10.500
       60.000        90.000       0.500        60.000        90.000      10.500
       70.000        90.000       0.500        70.000        90.000      10.500
       80.000        90.000       0.500        80.000        90.000      10.500
       90.000        90.000       0.500        90.000        90.000      10.500
      100.000        90.000       0.000       100.000        90.000      10.500
      110.000        90.000       0.000       110.000        90.000      10.000
      120.000        90.000       0.000       120.000        90.000      10.000
      130.000        90.000       0.000       130.000        90.000      10.000
      140.000        90.000       0.000       140.000        90.000      10.000
      150.000        90.000       0.000       150.000        90.000      10.000
      160.000        90.000       0.000       160.000        90.000      10.000
      170.000        90.000       0.000       170.000        90.000      10.000
      180.000        90.000       0.000       180.000        90.000      10.000
      190.000        90.000       0.000       190.000        90.000      10.000
      200.000        90.000       0.000       200.000        90.000      10.000
        0.000        80.000       0.500         0.000        80.000      10.500
       10.000        80.000       0.500        10.000        80.000      10.500
       20.000        80.000       0.500        20.000        80.000      10.500
       30.000        80.000       0.500        30.000        80.000      10.500
       40.000        80.000       0.500        40.000        80.000      10.500
       50.000        80.000       0.500        50.000        80.000      10.500
       60.000        80.000       0.500        60.000        80.000      10.500
       70.000        80.000       0.500        70.000        80.000      10.500
       80.000        80.000       0.500        80.000        80.000      10.500
       90.000        80.000       0.500        90.000        80.000      10.500
      100.000        80.000       0.000       100.000        80.000      10.500
      110.000        80.000       0.000       110.000        80.000      10.000
      120.000        80.000       0.000       120.000        80.000      10.000
      130.000        80.000       0.000       130.000        80.000      10.000
      140.000        80.000       0.000       140.000        80.000      10.000
      150.000        80.000       0.000       150.000        80.000      10.000
      160.000        80.000       0.000       160.000        80.000      10.000
      170.000        80.000       0.000       170.000        80.000      10.000
      180.000        80.000       0.000       180.000        80.000      10.000
      190.000        80.000       0.000       190.000        80.000      10.000
      200.000        80.000       0.000       200.000        80.000      10.000
        0.000        70.000       0.500         0.000        70.000      10.500
       10.000        70.000       0.500        10.000        70.000      10.500
       20.000        70.000       0.500        20.000        70.000      10.500
       30.000        70.000       0.500        30.000        70.000      10.500
       40.000        70.000       0.500        40.000        70.000      10.500
       50.000        70.000       0.500        50.000        70.000      10.500
       60.000        70.000       0.500        60.000        70.000      10.500
       70.000        70.000       0.500        70.000        70.000      10.500
       80.000        70.000       0.500        80.000        70.000      10.500
       90.000        70.000       0.500        90.000        70.000      10.500
      100.000        70.000       0.000       100.000        70.000      10.500
      110.000        70.000       0.000       110.000        70.000      10.000
      120.000        70.000       0.000       120.000        70.000      10.000
      130.000        70.000       0.000       130.000        70.000      10.000
      140.000        70.000       0.000       140.000        70.000      10.000
      150.000        70.000       0.000       150.000        70.000      10.000
      160.000        70.000       0.000       160.000        70.000      10.000
      170.000        70.000       0.000       170.000        70.000      10.000
      180.000        70.000       0.000       180.000        70.000      10.000
      190.000        70.000       0.000       190.000        70.000      10.000
      200.000        70.000       0.000       200.000        70.000      10.000
        0.000        60.000       0.500         0.000        60.000      10.500
       10.000        60.000       0.500        10.000        60.000      10.500
       20.000        60.000       0.500        20.000        60.000      10.500
       30.000        60.000       0.500        30.000        60.000      10.500
       40.000        60.000       0.500        40.000        60.000      10.500
       50.000        60.000       0.500        50.000        60.000      10.500
       60.000        60.000       0.500        60.000        60.000      10.500
       70.000        60.000       0.500        70.000        60.000      10.500
       80.000        60.000       0.500        80.000        60.000      10.500
       90.000        60.000       0.500        90.000        60.000      10.500
      100.000        60.000       0.000       100.000        60.000      10.500
      110.000        60.000       0.000       110.000        60.000      10.000
      120.000        60.000       0.000       120.000        60.000      10.000
      130.000        60.000       0.000       130.000        60.000      10.000
      140.000        60.000       0.000       140.000        60.000      10.000
      150.000        60.000       0.000       150.000        60.000      10.000
      160.000        60.000       0.000       160.000        60.000      10.000
      170.000        60.000       0.000       170.000        60.000      10.000
      180.000        60.000       0.000       180.000        60.000      10.000
      190.000        60.000       0.000       190.000        60.000      10.000
      200.000        60.000       0.000       200.000        60.000      10.000
        0.000        50.000       0.500         0.000        50.000      10.500
       10.000        50.000       0.500        10.000        50.000      10.500
       20.000        50.000       0.500        20.000        50.000      10.500
       30.000        50.000       0.500        30.000        50.000      10.500
       40.000        50.000       0.500        40.000        50.000      10.500
       50.000        50.000       0.500        50.000        50.000      10.500
       60.000        50.000       0.500        60.000        50.000      10.500
       70.000        50.000       0.500        70.000        50.000      10.500
       80.000        50.000       0.500        80.000        50.000      10.500
       90.000        50.000       0.500        90.000        50.000      10.500
      100.000        50.000       0.000       100.000        50.000      10.500
      110.000        50.000       0.000       110.000        50.000      10.000
      120.000        50.000       0.000       120.000        50.000      10.000
      130.000        50.000       0.000       130.000        50.000      10.000
      140.000        50.000       0.000       140.000        50.000      10.000
      150.000        50.000       0.000       150.000        50.000      10.000
      160.000        50.000       0.000       160.000        50.000      10.000
      170.000        50.000       0.000       170.000        50.000      10.000
      180.000        50.000       0.000       180.000        50.000      10.000
      190.000        50.000       0.000       190.000        50.000      10.000
      200.000        50.000       0.000       200.000        50.000      10.000
        0.000        40.000       0.500         0.000        40.000      10.500
       10.000        40.000       0.500        10.000        40.000      10.500
       20.000        40.000       0.500        20.000        40.000      10.500
       30.000        40.000       0.500        30.000        40.000      10.500
       40.000        40.000       0.500        40.000        40.000      10.500
       50.000        40.000       0.500        50.000        40.000      10.500
       60.000        40.000       0.500        60.000        40.000      10.500
       70.000        40.000       0.500        70.000        40.000      10.500
       80.000        40.000       0.500        80.000        40.000      10.500
       90.000        40.000       0.500        90.000        40.000      10.500
      100.000        40.000       0.000       100.000        40.000      10.500
      110.000        40.000       0.000       110.000        40.000      10.000
      120.000        40.000       0.000       120.000        40.000      10.000
      130.000        40.000       0.000       130.000        40.000      10.000
      140.000        40.000       0.000       140.000        40.000      10.000
      150.000        40.000       0.000       150.000        40.000      10.000
      160.000        40.000       0.000       160.000        40.000      10.000
      170.000        40.000       0.000       170.000        40.000      10.000
      180.000        40.000       0.000       180.000        40.000      10.000
      190.000        40.000       0.000       190.000        40.000      10.000
      200.000        40.000       0.000       200.000        40.000      10.000
        0.000        30.000       0.500         0.000        30.000      10.500
       10.000        30.000       0.500        10.000        30.000      10.500
       20.000        30.000       0.500        20.000        30.000      10.500
       30.000        30.000       0.500        30.000        30.000      10.500
       40.000        30.000       0.500        40.000        30.000      10.500
       50.000        30.000       0.500        50.000        30.000      10.500