-- This reservoir simulation deck is made available under the Open Database
-- License: http://opendatacommons.org/licenses/odbl/1.0/. Any rights in
-- individual contents of the database are licensed under the Database Contents
-- License: http://opendatacommons.org/licenses/dbcl/1.0/

-- Copyright (C) 2023 Equinor


SPECGRID
 10 11 7 1 F / 

COORD
  2000.0000  2000.0000  2000.0000   2000.0000  2000.0000  2017.4967 
  2099.9848  2000.0000  2001.7452   2099.9848  2000.0000  2019.2419 
  2199.9695  2000.0000  2003.4905   2199.9695  2000.0000  2020.9871 
  2299.9543  2000.0000  2005.2357   2299.9543  2000.0000  2022.7324 
  2399.9391  2000.0000  2006.9810   2399.9391  2000.0000  2024.4776 
  2499.9238  2000.0000  2008.7262   2499.9238  2000.0000  2026.2229 
  2599.9086  2000.0000  2010.4714   2599.9086  2000.0000  2027.9681 
  2699.8934  2000.0000  2012.2167   2699.8934  2000.0000  2029.7134 
  2799.8782  2000.0000  2013.9619   2799.8782  2000.0000  2031.4586 
  2899.8629  2000.0000  2015.7072   2899.8629  2000.0000  2033.2038 
  2999.8477  2000.0000  2017.4524   2999.8477  2000.0000  2034.9491 
  2000.0000  2099.9962  2000.8727   2000.0000  2099.9962  2018.3693 
  2099.9848  2099.9962  2002.6179   2099.9848  2099.9962  2020.1146 
  2199.9695  2099.9962  2004.3631   2199.9695  2099.9962  2021.8598 
  2299.9543  2099.9962  2006.1084   2299.9543  2099.9962  2023.6050 
  2399.9391  2099.9962  2007.8536   2399.9391  2099.9962  2025.3503 
  2499.9238  2099.9962  2009.5989   2499.9238  2099.9962  2027.0955 
  2599.9086  2099.9962  2011.3441   2599.9086  2099.9962  2028.8408 
  2699.8934  2099.9962  2013.0893   2699.8934  2099.9962  2030.5860 
  2799.8782  2099.9962  2014.8346   2799.8782  2099.9962  2032.3312 
  2899.8629  2099.9962  2016.5798   2899.8629  2099.9962  2034.0765 
  2999.8477  2099.9962  2018.3251   2999.8477  2099.9962  2035.8217 
  2000.0000  2199.9924  2001.7453   2000.0000  2199.9924  2019.2420 
  2099.9848  2199.9924  2003.4905   2099.9848  2199.9924  2020.9872 
  2199.9695  2199.9924  2005.2358   2199.9695  2199.9924  2022.7325 
  2299.9543  2199.9924  2006.9810   2299.9543  2199.9924  2024.4777 
  2399.9391  2199.9924  2008.7263   2399.9391  2199.9924  2026.2229 
  2499.9238  2199.9924  2010.4715   2499.9238  2199.9924  2027.9682 
  2599.9086  2199.9924  2012.2168   2599.9086  2199.9924  2029.7134 
  2699.8934  2199.9924  2013.9620   2699.8934  2199.9924  2031.4587 
  2799.8782  2199.9924  2015.7072   2799.8782  2199.9924  2033.2039 
  2899.8629  2199.9924  2017.4525   2899.8629  2199.9924  2034.9491 
  2999.8477  2199.9924  2019.1977   2999.8477  2199.9924  2036.6944 
  2000.0000  2299.9886  2002.6180   2000.0000  2299.9886  2020.1146 
  2099.9848  2299.9886  2004.3632   2099.9848  2299.9886  2021.8599 
  2199.9695  2299.9886  2006.1084   2199.9695  2299.9886  2023.6051 
  2299.9543  2299.9886  2007.8537   2299.9543  2299.9886  2025.3504 
  2399.9391  2299.9886  2009.5989   2399.9391  2299.9886  2027.0956 
  2499.9238  2299.9886  2011.3442   2499.9238  2299.9886  2028.8408 
  2599.9086  2299.9886  2013.0894   2599.9086  2299.9886  2030.5861 
  2699.8934  2299.9886  2014.8346   2699.8934  2299.9886  2032.3313 
  2799.8782  2299.9886  2016.5799   2799.8782  2299.9886  2034.0766 
  2899.8629  2299.9886  2018.3251   2899.8629  2299.9886  2035.8218 
  2999.8477  2299.9886  2020.0704   2999.8477  2299.9886  2037.5670 
  2000.0000  2399.9848  2003.4906   2000.0000  2399.9848  2020.9873 
  2099.9848  2399.9848  2005.2359   2099.9848  2399.9848  2022.7325 
  2199.9695  2399.9848  2006.9811   2199.9695  2399.9848  2024.4778 
  2299.9543  2399.9848  2008.7263   2299.9543  2399.9848  2026.2230 
  2399.9391  2399.9848  2010.4716   2399.9391  2399.9848  2027.9682 
  2499.9238  2399.9848  2012.2168   2499.9238  2399.9848  2029.7135 
  2599.9086  2399.9848  2013.9621   2599.9086  2399.9848  2031.4587 
  2699.8934  2399.9848  2015.7073   2699.8934  2399.9848  2033.2040 
  2799.8782  2399.9848  2017.4525   2799.8782  2399.9848  2034.9492 
  2899.8629  2399.9848  2019.1978   2899.8629  2399.9848  2036.6944 
  2999.8477  2399.9848  2020.9430   2999.8477  2399.9848  2038.4397 
  2000.0000  2499.9810  2004.3633   2000.0000  2499.9810  2021.8599 
  2099.9848  2499.9810  2006.1085   2099.9848  2499.9810  2023.6052 
  2199.9695  2499.9810  2007.8537   2199.9695  2499.9810  2025.3504 
  2299.9543  2499.9810  2009.5990   2299.9543  2499.9810  2027.0957 
  2399.9391  2499.9810  2011.3442   2399.9391  2499.9810  2028.8409 
  2499.9238  2499.9810  2013.0895   2499.9238  2499.9810  2030.5861 
  2599.9086  2499.9810  2014.8347   2599.9086  2499.9810  2032.3314 
  2699.8934  2499.9810  2016.5800   2699.8934  2499.9810  2034.0766 
  2799.8782  2499.9810  2018.3252   2799.8782  2499.9810  2035.8219 
  2899.8629  2499.9810  2020.0704   2899.8629  2499.9810  2037.5671 
  2999.8477  2499.9810  2021.8157   2999.8477  2499.9810  2039.3123 
  2000.0000  2599.9772  1998.2359   2000.0000  2599.9772  2015.7326 
  2099.9848  2599.9772  1999.9812   2099.9848  2599.9772  2017.4778 
  2199.9695  2599.9772  2001.7264   2199.9695  2599.9772  2019.2231 
  2299.9543  2599.9772  2003.4716   2299.9543  2599.9772  2020.9683 
  2399.9391  2599.9772  2005.2169   2399.9391  2599.9772  2022.7136 
  2499.9238  2599.9772  2013.9621   2499.9238  2599.9772  2031.4588 
  2599.9086  2599.9772  2015.7074   2599.9086  2599.9772  2033.2040 
  2699.8934  2599.9772  2017.4526   2699.8934  2599.9772  2034.9493 
  2799.8782  2599.9772  2019.1978   2799.8782  2599.9772  2036.6945 
  2899.8629  2599.9772  2020.9431   2899.8629  2599.9772  2038.4398 
  2999.8477  2599.9772  2022.6883   2999.8477  2599.9772  2040.1850 
  2000.0000  2699.9733  1999.1086   2000.0000  2699.9733  2016.6052 
  2099.9848  2699.9733  2000.8538   2099.9848  2699.9733  2018.3505 
  2199.9695  2699.9733  2002.5991   2199.9695  2699.9733  2020.0957 
  2299.9543  2699.9733  2004.3443   2299.9543  2699.9733  2021.8410 
  2399.9391  2699.9733  2006.0895   2399.9391  2699.9733  2023.5862 
  2499.9238  2699.9733  2014.8348   2499.9238  2699.9733  2032.3314 
  2599.9086  2699.9733  2016.5800   2599.9086  2699.9733  2034.0767 
  2699.8934  2699.9733  2018.3253   2699.8934  2699.9733  2035.8219 
  2799.8782  2699.9733  2020.0705   2799.8782  2699.9733  2037.5672 
  2899.8629  2699.9733  2021.8157   2899.8629  2699.9733  2039.3124 
  2999.8477  2699.9733  2023.5610   2999.8477  2699.9733  2041.0576 
  2000.0000  2799.9695  1999.9812   2000.0000  2799.9695  2017.4779 
  2099.9848  2799.9695  2001.7265   2099.9848  2799.9695  2019.2231 
  2199.9695  2799.9695  2003.4717   2199.9695  2799.9695  2020.9684 
  2299.9543  2799.9695  2005.2170   2299.9543  2799.9695  2022.7136 
  2399.9391  2799.9695  2006.9622   2399.9391  2799.9695  2024.4589 
  2499.9238  2799.9695  2015.7074   2499.9238  2799.9695  2033.2041 
  2599.9086  2799.9695  2017.4527   2599.9086  2799.9695  2034.9493 
  2699.8934  2799.9695  2019.1979   2699.8934  2799.9695  2036.6946 
  2799.8782  2799.9695  2020.9432   2799.8782  2799.9695  2038.4398 
  2899.8629  2799.9695  2022.6884   2899.8629  2799.9695  2040.1851 
  2999.8477  2799.9695  2024.4336   2999.8477  2799.9695  2041.9303 
  2000.0000  2899.9657  2000.8539   2000.0000  2899.9657  2018.3506 
  2099.9848  2899.9657  2002.5991   2099.9848  2899.9657  2020.0958 
  2199.9695  2899.9657  2004.3444   2199.9695  2899.9657  2021.8410 
  2299.9543  2899.9657  2006.0896   2299.9543  2899.9657  2023.5863 
  2399.9391  2899.9657  2007.8348   2399.9391  2899.9657  2025.3315 
  2499.9238  2899.9657  2016.5801   2499.9238  2899.9657  2034.0768 
  2599.9086  2899.9657  2018.3253   2599.9086  2899.9657  2035.8220 
  2699.8934  2899.9657  2020.0706   2699.8934  2899.9657  2037.5672 
  2799.8782  2899.9657  2021.8158   2799.8782  2899.9657  2039.3125 
  2899.8629  2899.9657  2023.5610   2899.8629  2899.9657  2041.0577 
  2999.8477  2899.9657  2025.3063   2999.8477  2899.9657  2042.8030 
  2000.0000  2999.9619  2001.7265   2000.0000  2999.9619  2019.2232 
  2099.9848  2999.9619  2003.4718   2099.9848  2999.9619  2020.9684 
  2199.9695  2999.9619  2005.2170   2199.9695  2999.9619  2022.7137 
  2299.9543  2999.9619  2006.9623   2299.9543  2999.9619  2024.4589 
  2399.9391  2999.9619  2008.7075   2399.9391  2999.9619  2026.2042 
  2499.9238  2999.9619  2017.4527   2499.9238  2999.9619  2034.9494 
  2599.9086  2999.9619  2019.1980   2599.9086  2999.9619  2036.6946 
  2699.8934  2999.9619  2020.9432   2699.8934  2999.9619  2038.4399 
  2799.8782  2999.9619  2022.6885   2799.8782  2999.9619  2040.1851 
  2899.8629  2999.9619  2024.4337   2899.8629  2999.9619  2041.9304 
  2999.8477  2999.9619  2026.1789   2999.8477  2999.9619  2043.6756 
  2000.0000  3099.9581  2002.5992   2000.0000  3099.9581  2020.0959 
  2099.9848  3099.9581  2004.3444   2099.9848  3099.9581  2021.8411 
  2199.9695  3099.9581  2006.0897   2199.9695  3099.9581  2023.5863 
  2299.9543  3099.9581  2007.8349   2299.9543  3099.9581  2025.3316 
  2399.9391  3099.9581  2009.5802   2399.9391  3099.9581  2027.0768 
  2499.9238  3099.9581  2018.3254   2499.9238  3099.9581  2035.8221 
  2599.9086  3099.9581  2020.0706   2599.9086  3099.9581  2037.5673 
  2699.8934  3099.9581  2021.8159   2699.8934  3099.9581  2039.3125 
  2799.8782  3099.9581  2023.5611   2799.8782  3099.9581  2041.0578 
  2899.8629  3099.9581  2025.3064   2899.8629  3099.9581  2042.8030 
  2999.8477  3099.9581  2027.0516   2999.8477  3099.9581  2044.5483 
/ 

ZCORN
  2000.0000  2001.7452  2001.7452  2003.4905  2003.4905  2005.2357
  2005.2357  2006.9810  2006.9810  2008.7262  2008.7262  2010.4714
  2010.4714  2012.2167  2012.2167  2013.9619  2013.9619  2015.7072
  2015.7072  2017.4524  2000.8727  2002.6179  2002.6179  2004.3631
  2004.3631  2006.1084  2006.1084  2007.8536  2007.8536  2009.5989
  2009.5989  2011.3441  2011.3441  2013.0893  2013.0893  2014.8346
  2014.8346  2016.5798  2016.5798  2018.3251  2000.8727  2002.6179
  2002.6179  2004.3631  2004.3631  2006.1084  2006.1084  2007.8536
  2007.8536  2009.5989  2009.5989  2011.3441  2011.3441  2013.0893
  2013.0893  2014.8346  2014.8346  2016.5798  2016.5798  2018.3251
  2001.7453  2003.4905  2003.4905  2005.2358  2005.2358  2006.9810
  2006.9810  2008.7263  2008.7263  2010.4715  2010.4715  2012.2168
  2012.2168  2013.9620  2013.9620  2015.7072  2015.7072  2017.4525
  2017.4525  2019.1977  2001.7453  2003.4905  2003.4905  2005.2358
  2005.2358  2006.9810  2006.9810  2008.7263  2008.7263  2010.4715
  2010.4715  2012.2168  2012.2168  2013.9620  2013.9620  2015.7072
  2015.7072  2017.4525  2017.4525  2019.1977  2002.6180  2004.3632
  2004.3632  2006.1084  2006.1084  2007.8537  2007.8537  2009.5989
  2009.5989  2011.3442  2011.3442  2013.0894  2013.0894  2014.8346
  2014.8346  2016.5799  2016.5799  2018.3251  2018.3251  2020.0704
  2002.6180  2004.3632  2004.3632  2006.1084  2006.1084  2007.8537
  2007.8537  2009.5989  2009.5989  2011.3442  2011.3442  2013.0894
  2013.0894  2014.8346  2014.8346  2016.5799  2016.5799  2018.3251
  2018.3251  2020.0704  2003.4906  2005.2359  2005.2359  2006.9811
  2006.9811  2008.7263  2008.7263  2010.4716  2010.4716  2012.2168
  2012.2168  2013.9621  2013.9621  2015.7073  2015.7073  2017.4525
  2017.4525  2019.1978  2019.1978  2020.9430  2003.4906  2005.2359
  2005.2359  2006.9811  2006.9811  2008.7263  2008.7263  2010.4716
  2010.4716  2012.2168  2012.2168  2013.9621  2013.9621  2015.7073
  2015.7073  2017.4525  2017.4525  2019.1978  2019.1978  2020.9430
  2004.3633  2006.1085  2006.1085  2007.8537  2007.8537  2009.5990
  2009.5990  2011.3442  2011.3442  2013.0895  2013.0895  2014.8347
  2014.8347  2016.5800  2016.5800  2018.3252  2018.3252  2020.0704
  2020.0704  2021.8157  2004.3633  2006.1085  2006.1085  2007.8537
  2007.8537  2009.5990  2009.5990  2011.3442  2011.3442  2013.0895
  2013.0895  2014.8347  2014.8347  2016.5800  2016.5800  2018.3252
  2018.3252  2020.0704  2020.0704  2021.8157  2005.2359  2006.9812
  2006.9812  2008.7264  2008.7264  2010.4716  2010.4716  2012.2169
  2012.2169  2013.9621  2013.9621  2015.7074  2015.7074  2017.4526
  2017.4526  2019.1978  2019.1978  2020.9431  2020.9431  2022.6883
  1998.2359  1999.9812  1999.9812  2001.7264  2001.7264  2003.4716
  2003.4716  2005.2169  2005.2169  2006.9621  2013.9621  2015.7074
  2015.7074  2017.4526  2017.4526  2019.1978  2019.1978  2020.9431
  2020.9431  2022.6883  1999.1086  2000.8538  2000.8538  2002.5991
  2002.5991  2004.3443  2004.3443  2006.0895  2006.0895  2007.8348
  2014.8348  2016.5800  2016.5800  2018.3253  2018.3253  2020.0705
  2020.0705  2021.8157  2021.8157  2023.5610  1999.1086  2000.8538
  2000.8538  2002.5991  2002.5991  2004.3443  2004.3443  2006.0895
  2006.0895  2007.8348  2014.8348  2016.5800  2016.5800  2018.3253
  2018.3253  2020.0705  2020.0705  2021.8157  2021.8157  2023.5610
  1999.9812  2001.7265  2001.7265  2003.4717  2003.4717  2005.2170
  2005.2170  2006.9622  2006.9622  2008.7074  2015.7074  2017.4527
  2017.4527  2019.1979  2019.1979  2020.9432  2020.9432  2022.6884
  2022.6884  2024.4336  1999.9812  2001.7265  2001.7265  2003.4717
  2003.4717  2005.2170  2005.2170  2006.9622  2006.9622  2008.7074
  2015.7074  2017.4527  2017.4527  2019.1979  2019.1979  2020.9432
  2020.9432  2022.6884  2022.6884  2024.4336  2000.8539  2002.5991
  2002.5991  2004.3444  2004.3444  2006.0896  2006.0896  2007.8348
  2007.8348  2009.5801  2016.5801  2018.3253  2018.3253  2020.0706
  2020.0706  2021.8158  2021.8158  2023.5610  2023.5610  2025.3063
  2000.8539  2002.5991  2002.5991  2004.3444  2004.3444  2006.0896
  2006.0896  2007.8348  2007.8348  2009.5801  2016.5801  2018.3253
  2018.3253  2020.0706  2020.0706  2021.8158  2021.8158  2023.5610
  2023.5610  2025.3063  2001.7265  2003.4718  2003.4718  2005.2170
  2005.2170  2006.9623  2006.9623  2008.7075  2008.7075  2010.4527
  2017.4527  2019.1980  2019.1980  2020.9432  2020.9432  2022.6885
  2022.6885  2024.4337  2024.4337  2026.1789  2001.7265  2003.4718
  2003.4718  2005.2170  2005.2170  2006.9623  2006.9623  2008.7075
  2008.7075  2010.4527  2017.4527  2019.1980  2019.1980  2020.9432
  2020.9432  2022.6885  2022.6885  2024.4337  2024.4337  2026.1789
  2002.5992  2004.3444  2004.3444  2006.0897  2006.0897  2007.8349
  2007.8349  2009.5802  2009.5802  2011.3254  2018.3254  2020.0706
  2020.0706  2021.8159  2021.8159  2023.5611  2023.5611  2025.3064
  2025.3064  2027.0516  2002.4995  2004.2448  2004.2448  2005.9900
  2005.9900  2007.7352  2007.7352  2009.4805  2009.4805  2011.2257
  2011.2257  2012.9710  2012.9710  2014.7162  2014.7162  2016.4614
  2016.4614  2018.2067  2018.2067  2019.9519  2003.3722  2005.1174
  2005.1174  2006.8627  2006.8627  2008.6079  2008.6079  2010.3531
  2010.3531  2012.0984  2012.0984  2013.8436  2013.8436  2015.5889
  2015.5889  2017.3341  2017.3341  2019.0793  2019.0793  2020.8246
  2003.3722  2005.1174  2005.1174  2006.8627  2006.8627  2008.6079
  2008.6079  2010.3531  2010.3531  2012.0984  2012.0984  2013.8436
  2013.8436  2015.5889  2015.5889  2017.3341  2017.3341  2019.0793
  2019.0793  2020.8246  2004.2448  2005.9901  2005.9901  2007.7353
  2007.7353  2009.4806  2009.4806  2011.2258  2011.2258  2012.9710
  2012.9710  2014.7163  2014.7163  2016.4615  2016.4615  2018.2068
  2018.2068  2019.9520  2019.9520  2021.6972  2004.2448  2005.9901
  2005.9901  2007.7353  2007.7353  2009.4806  2009.4806  2011.2258
  2011.2258  2012.9710  2012.9710  2014.7163  2014.7163  2016.4615
  2016.4615  2018.2068  2018.2068  2019.9520  2019.9520  2021.6972
  2005.1175  2006.8627  2006.8627  2008.6080  2008.6080  2010.3532
  2010.3532  2012.0984  2012.0984  2013.8437  2013.8437  2015.5889
  2015.5889  2017.3342  2017.3342  2019.0794  2019.0794  2020.8247
  2020.8247  2022.5699  2005.1175  2006.8627  2006.8627  2008.6080
  2008.6080  2010.3532  2010.3532  2012.0984  2012.0984  2013.8437
  2013.8437  2015.5889  2015.5889  2017.3342  2017.3342  2019.0794
  2019.0794  2020.8247  2020.8247  2022.5699  2005.9901  2007.7354
  2007.7354  2009.4806  2009.4806  2011.2259  2011.2259  2012.9711
  2012.9711  2014.7163  2014.7163  2016.4616  2016.4616  2018.2068
  2018.2068  2019.9521  2019.9521  2021.6973  2021.6973  2023.4425
  2005.9901  2007.7354  2007.7354  2009.4806  2009.4806  2011.2259
  2011.2259  2012.9711  2012.9711  2014.7163  2014.7163  2016.4616
  2016.4616  2018.2068  2018.2068  2019.9521  2019.9521  2021.6973
  2021.6973  2023.4425  2006.8628  2008.6080  2008.6080  2010.3533
  2010.3533  2012.0985  2012.0985  2013.8438  2013.8438  2015.5890
  2015.5890  2017.3342  2017.3342  2019.0795  2019.0795  2020.8247
  2020.8247  2022.5700  2022.5700  2024.3152  2006.8628  2008.6080
  2008.6080  2010.3533  2010.3533  2012.0985  2012.0985  2013.8438
  2013.8438  2015.5890  2015.5890  2017.3342  2017.3342  2019.0795
  2019.0795  2020.8247  2020.8247  2022.5700  2022.5700  2024.3152
  2007.7354  2009.4807  2009.4807  2011.2259  2011.2259  2012.9712
  2012.9712  2014.7164  2014.7164  2016.4616  2016.4616  2018.2069
  2018.2069  2019.9521  2019.9521  2021.6974  2021.6974  2023.4426
  2023.4426  2025.1879  2000.7354  2002.4807  2002.4807  2004.2259
  2004.2259  2005.9712  2005.9712  2007.7164  2007.7164  2009.4616
  2016.4616  2018.2069  2018.2069  2019.9521  2019.9521  2021.6974
  2021.6974  2023.4426  2023.4426  2025.1879  2001.6081  2003.3533
  2003.3533  2005.0986  2005.0986  2006.8438  2006.8438  2008.5891
  2008.5891  2010.3343  2017.3343  2019.0795  2019.0795  2020.8248
  2020.8248  2022.5700  2022.5700  2024.3153  2024.3153  2026.0605
  2001.6081  2003.3533  2003.3533  2005.0986  2005.0986  2006.8438
  2006.8438  2008.5891  2008.5891  2010.3343  2017.3343  2019.0795
  2019.0795  2020.8248  2020.8248  2022.5700  2022.5700  2024.3153
  2024.3153  2026.0605  2002.4808  2004.2260  2004.2260  2005.9712
  2005.9712  2007.7165  2007.7165  2009.4617  2009.4617  2011.2070
  2018.2070  2019.9522  2019.9522  2021.6974  2021.6974  2023.4427
  2023.4427  2025.1879  2025.1879  2026.9332  2002.4808  2004.2260
  2004.2260  2005.9712  2005.9712  2007.7165  2007.7165  2009.4617
  2009.4617  2011.2070  2018.2070  2019.9522  2019.9522  2021.6974
  2021.6974  2023.4427  2023.4427  2025.1879  2025.1879  2026.9332
  2003.3534  2005.0986  2005.0986  2006.8439  2006.8439  2008.5891
  2008.5891  2010.3344  2010.3344  2012.0796  2019.0796  2020.8248
  2020.8248  2022.5701  2022.5701  2024.3153  2024.3153  2026.0606
  2026.0606  2027.8058  2003.3534  2005.0986  2005.0986  2006.8439
  2006.8439  2008.5891  2008.5891  2010.3344  2010.3344  2012.0796
  2019.0796  2020.8248  2020.8248  2022.5701  2022.5701  2024.3153
  2024.3153  2026.0606  2026.0606  2027.8058  2004.2261  2005.9713
  2005.9713  2007.7165  2007.7165  2009.4618  2009.4618  2011.2070
  2011.2070  2012.9523  2019.9523  2021.6975  2021.6975  2023.4427
  2023.4427  2025.1880  2025.1880  2026.9332  2026.9332  2028.6785
  2004.2261  2005.9713  2005.9713  2007.7165  2007.7165  2009.4618
  2009.4618  2011.2070  2011.2070  2012.9523  2019.9523  2021.6975
  2021.6975  2023.4427  2023.4427  2025.1880  2025.1880  2026.9332
  2026.9332  2028.6785  2005.0987  2006.8440  2006.8440  2008.5892
  2008.5892  2010.3344  2010.3344  2012.0797  2012.0797  2013.8249
  2020.8249  2022.5702  2022.5702  2024.3154  2024.3154  2026.0606
  2026.0606  2027.8059  2027.8059  2029.5511  2002.4995  2004.2448
  2004.2448  2005.9900  2005.9900  2007.7352  2007.7352  2009.4805
  2009.4805  2011.2257  2011.2257  2012.9710  2012.9710  2014.7162
  2014.7162  2016.4614  2016.4614  2018.2067  2018.2067  2019.9519
  2003.3722  2005.1174  2005.1174  2006.8627  2006.8627  2008.6079
  2008.6079  2010.3531  2010.3531  2012.0984  2012.0984  2013.8436
  2013.8436  2015.5889  2015.5889  2017.3341  2017.3341  2019.0793
  2019.0793  2020.8246  2003.3722  2005.1174  2005.1174  2006.8627
  2006.8627  2008.6079  2008.6079  2010.3531  2010.3531  2012.0984
  2012.0984  2013.8436  2013.8436  2015.5889  2015.5889  2017.3341
  2017.3341  2019.0793  2019.0793  2020.8246  2004.2448  2005.9901
  2005.9901  2007.7353  2007.7353  2009.4806  2009.4806  2011.2258
  2011.2258  2012.9710  2012.9710  2014.7163  2014.7163  2016.4615
  2016.4615  2018.2068  2018.2068  2019.9520  2019.9520  2021.6972
  2004.2448  2005.9901  2005.9901  2007.7353  2007.7353  2009.4806
  2009.4806  2011.2258  2011.2258  2012.9710  2012.9710  2014.7163
  2014.7163  2016.4615  2016.4615  2018.2068  2018.2068  2019.9520
  2019.9520  2021.6972  2005.1175  2006.8627  2006.8627  2008.6080
  2008.6080  2010.3532  2010.3532  2012.0984  2012.0984  2013.8437
  2013.8437  2015.5889  2015.5889  2017.3342  2017.3342  2019.0794
  2019.0794  2020.8247  2020.8247  2022.5699  2005.1175  2006.8627
  2006.8627  2008.6080  2008.6080  2010.3532  2010.3532  2012.0984
  2012.0984  2013.8437  2013.8437  2015.5889  2015.5889  2017.3342
  2017.3342  2019.0794  2019.0794  2020.8247  2020.8247  2022.5699
  2005.9901  2007.7354  2007.7354  2009.4806  2009.4806  2011.2259
  2011.2259  2012.9711  2012.9711  2014.7163  2014.7163  2016.4616
  2016.4616  2018.2068  2018.2068  2019.9521  2019.9521  2021.6973
  2021.6973  2023.4425  2005.9901  2007.7354  2007.7354  2009.4806
  2009.4806  2011.2259  2011.2259  2012.9711  2012.9711  2014.7163
  2014.7163  2016.4616  2016.4616  2018.2068  2018.2068  2019.9521
  2019.9521  2021.6973  2021.6973  2023.4425  2006.8628  2008.6080
  2008.6080  2010.3533  2010.3533  2012.0985  2012.0985  2013.8438
  2013.8438  2015.5890  2015.5890  2017.3342  2017.3342  2019.0795
  2019.0795  2020.8247  2020.8247  2022.5700  2022.5700  2024.3152
  2006.8628  2008.6080  2008.6080  2010.3533  2010.3533  2012.0985
  2012.0985  2013.8438  2013.8438  2015.5890  2015.5890  2017.3342
  2017.3342  2019.0795  2019.0795  2020.8247  2020.8247  2022.5700
  2022.5700  2024.3152  2007.7354  2009.4807  2009.4807  2011.2259
  2011.2259  2012.9712  2012.9712  2014.7164  2014.7164  2016.4616
  2016.4616  2018.2069  2018.2069  2019.9521  2019.9521  2021.6974
  2021.6974  2023.4426  2023.4426  2025.1879  2000.7354  2002.4807
  2002.4807  2004.2259  2004.2259  2005.9712  2005.9712  2007.7164
  2007.7164  2009.4616  2016.4616  2018.2069  2018.2069  2019.9521
  2019.9521  2021.6974  2021.6974  2023.4426  2023.4426  2025.1879
  2001.6081  2003.3533  2003.3533  2005.0986  2005.0986  2006.8438
  2006.8438  2008.5891  2008.5891  2010.3343  2017.3343  2019.0795
  2019.0795  2020.8248  2020.8248  2022.5700  2022.5700  2024.3153
  2024.3153  2026.0605  2001.6081  2003.3533  2003.3533  2005.0986
  2005.0986  2006.8438  2006.8438  2008.5891  2008.5891  2010.3343
  2017.3343  2019.0795  2019.0795  2020.8248  2020.8248  2022.5700
  2022.5700  2024.3153  2024.3153  2026.0605  2002.4808  2004.2260
  2004.2260  2005.9712  2005.9712  2007.7165  2007.7165  2009.4617
  2009.4617  2011.2070  2018.2070  2019.9522  2019.9522  2021.6974
  2021.6974  2023.4427  2023.4427  2025.1879  2025.1879  2026.9332
  2002.4808  2004.2260  2004.2260  2005.9712  2005.9712  2007.7165
  2007.7165  2009.4617  2009.4617  2011.2070  2018.2070  2019.9522
  2019.9522  2021.6974  2021.6974  2023.4427  2023.4427  2025.1879
  2025.1879  2026.9332  2003.3534  2005.0986  2005.0986  2006.8439
  2006.8439  2008.5891  2008.5891  2010.3344  2010.3344  2012.0796
  2019.0796  2020.8248  2020.8248  2022.5701  2022.5701  2024.3153
  2024.3153  2026.0606  2026.0606  2027.8058  2003.3534  2005.0986
  2005.0986  2006.8439  2006.8439  2008.5891  2008.5891  2010.3344
  2010.3344  2012.0796  2019.0796  2020.8248  2020.8248  2022.5701
  2022.5701  2024.3153  2024.3153  2026.0606  2026.0606  2027.8058
  2004.2261  2005.9713  2005.9713  2007.7165  2007.7165  2009.4618
  2009.4618  2011.2070  2011.2070  2012.9523  2019.9523  2021.6975
  2021.6975  2023.4427  2023.4427  2025.1880  2025.1880  2026.9332
  2026.9332  2028.6785  2004.2261  2005.9713  2005.9713  2007.7165
  2007.7165  2009.4618  2009.4618  2011.2070  2011.2070  2012.9523
  2019.9523  2021.6975  2021.6975  2023.4427  2023.4427  2025.1880
  2025.1880  2026.9332  2026.9332  2028.6785  2005.0987  2006.8440
  2006.8440  2008.5892  2008.5892  2010.3344  2010.3344  2012.0797
  2012.0797  2013.8249  2020.8249  2022.5702  2022.5702  2024.3154
  2024.3154  2026.0606  2026.0606  2027.8059  2027.8059  2029.5511
  2005.4990  2007.2442  2007.2442  2008.9894  2008.9894  2010.7347
  2010.7347  2012.4799  2012.4799  2014.2252  2014.2252  2015.9704
  2015.9704  2017.7156  2017.7156  2019.4609  2019.4609  2021.2061
  2021.2061  2022.9514  2006.3716  2008.1168  2008.1168  2009.8621
  2009.8621  2011.6073  2011.6073  2013.3526  2013.3526  2015.0978
  2015.0978  2016.8431  2016.8431  2018.5883  2018.5883  2020.3335
  2020.3335  2022.0788  2022.0788  2023.8240  2006.3716  2008.1168
  2008.1168  2009.8621  2009.8621  2011.6073  2011.6073  2013.3526
  2013.3526  2015.0978  2015.0978  2016.8431  2016.8431  2018.5883
  2018.5883  2020.3335  2020.3335  2022.0788  2022.0788  2023.8240
  2007.2443  2008.9895  2008.9895  2010.7347  2010.7347  2012.4800
  2012.4800  2014.2252  2014.2252  2015.9705  2015.9705  2017.7157
  2017.7157  2019.4609  2019.4609  2021.2062  2021.2062  2022.9514
  2022.9514  2024.6967  2007.2443  2008.9895  2008.9895  2010.7347
  2010.7347  2012.4800  2012.4800  2014.2252  2014.2252  2015.9705
  2015.9705  2017.7157  2017.7157  2019.4609  2019.4609  2021.2062
  2021.2062  2022.9514  2022.9514  2024.6967  2008.1169  2009.8622
  2009.8622  2011.6074  2011.6074  2013.3526  2013.3526  2015.0979
  2015.0979  2016.8431  2016.8431  2018.5884  2018.5884  2020.3336
  2020.3336  2022.0788  2022.0788  2023.8241  2023.8241  2025.5693
  2008.1169  2009.8622  2009.8622  2011.6074  2011.6074  2013.3526
  2013.3526  2015.0979  2015.0979  2016.8431  2016.8431  2018.5884
  2018.5884  2020.3336  2020.3336  2022.0788  2022.0788  2023.8241
  2023.8241  2025.5693  2008.9896  2010.7348  2010.7348  2012.4800
  2012.4800  2014.2253  2014.2253  2015.9705  2015.9705  2017.7158
  2017.7158  2019.4610  2019.4610  2021.2063  2021.2063  2022.9515
  2022.9515  2024.6967  2024.6967  2026.4420  2008.9896  2010.7348
  2010.7348  2012.4800  2012.4800  2014.2253  2014.2253  2015.9705
  2015.9705  2017.7158  2017.7158  2019.4610  2019.4610  2021.2063
  2021.2063  2022.9515  2022.9515  2024.6967  2024.6967  2026.4420
  2009.8622  2011.6075  2011.6075  2013.3527  2013.3527  2015.0979
  2015.0979  2016.8432  2016.8432  2018.5884  2018.5884  2020.3337
  2020.3337  2022.0789  2022.0789  2023.8241  2023.8241  2025.5694
  2025.5694  2027.3146  2009.8622  2011.6075  2011.6075  2013.3527
  2013.3527  2015.0979  2015.0979  2016.8432  2016.8432  2018.5884
  2018.5884  2020.3337  2020.3337  2022.0789  2022.0789  2023.8241
  2023.8241  2025.5694  2025.5694  2027.3146  2010.7349  2012.4801
  2012.4801  2014.2254  2014.2254  2015.9706  2015.9706  2017.7158
  2017.7158  2019.4611  2019.4611  2021.2063  2021.2063  2022.9516
  2022.9516  2024.6968  2024.6968  2026.4420  2026.4420  2028.1873
  2003.7349  2005.4801  2005.4801  2007.2254  2007.2254  2008.9706
  2008.9706  2010.7158  2010.7158  2012.4611  2019.4611  2021.2063
  2021.2063  2022.9516  2022.9516  2024.6968  2024.6968  2026.4420
  2026.4420  2028.1873  2004.6075  2006.3528  2006.3528  2008.0980
  2008.0980  2009.8432  2009.8432  2011.5885  2011.5885  2013.3337
  2020.3337  2022.0790  2022.0790  2023.8242  2023.8242  2025.5695
  2025.5695  2027.3147  2027.3147  2029.0599  2004.6075  2006.3528
  2006.3528  2008.0980  2008.0980  2009.8432  2009.8432  2011.5885
  2011.5885  2013.3337  2020.3337  2022.0790  2022.0790  2023.8242
  2023.8242  2025.5695  2025.5695  2027.3147  2027.3147  2029.0599
  2005.4802  2007.2254  2007.2254  2008.9707  2008.9707  2010.7159
  2010.7159  2012.4611  2012.4611  2014.2064  2021.2064  2022.9516
  2022.9516  2024.6969  2024.6969  2026.4421  2026.4421  2028.1873
  2028.1873  2029.9326  2005.4802  2007.2254  2007.2254  2008.9707
  2008.9707  2010.7159  2010.7159  2012.4611  2012.4611  2014.2064
  2021.2064  2022.9516  2022.9516  2024.6969  2024.6969  2026.4421
  2026.4421  2028.1873  2028.1873  2029.9326  2006.3528  2008.0981
  2008.0981  2009.8433  2009.8433  2011.5886  2011.5886  2013.3338
  2013.3338  2015.0790  2022.0790  2023.8243  2023.8243  2025.5695
  2025.5695  2027.3148  2027.3148  2029.0600  2029.0600  2030.8052
  2006.3528  2008.0981  2008.0981  2009.8433  2009.8433  2011.5886
  2011.5886  2013.3338  2013.3338  2015.0790  2022.0790  2023.8243
  2023.8243  2025.5695  2025.5695  2027.3148  2027.3148  2029.0600
  2029.0600  2030.8052  2007.2255  2008.9707  2008.9707  2010.7160
  2010.7160  2012.4612  2012.4612  2014.2065  2014.2065  2015.9517
  2022.9517  2024.6969  2024.6969  2026.4422  2026.4422  2028.1874
  2028.1874  2029.9327  2029.9327  2031.6779  2007.2255  2008.9707
  2008.9707  2010.7160  2010.7160  2012.4612  2012.4612  2014.2065
  2014.2065  2015.9517  2022.9517  2024.6969  2024.6969  2026.4422
  2026.4422  2028.1874  2028.1874  2029.9327  2029.9327  2031.6779
  2008.0981  2009.8434  2009.8434  2011.5886  2011.5886  2013.3339
  2013.3339  2015.0791  2015.0791  2016.8243  2023.8243  2025.5696
  2025.5696  2027.3148  2027.3148  2029.0601  2029.0601  2030.8053
  2030.8053  2032.5505  2005.4990  2007.2442  2007.2442  2008.9894
  2008.9894  2010.7347  2010.7347  2012.4799  2012.4799  2014.2252
  2014.2252  2015.9704  2015.9704  2017.7156  2017.7156  2019.4609
  2019.4609  2021.2061  2021.2061  2022.9514  2006.3716  2008.1168
  2008.1168  2009.8621  2009.8621  2011.6073  2011.6073  2013.3526
  2013.3526  2015.0978  2015.0978  2016.8431  2016.8431  2018.5883
  2018.5883  2020.3335  2020.3335  2022.0788  2022.0788  2023.8240
  2006.3716  2008.1168  2008.1168  2009.8621  2009.8621  2011.6073
  2011.6073  2013.3526  2013.3526  2015.0978  2015.0978  2016.8431
  2016.8431  2018.5883  2018.5883  2020.3335  2020.3335  2022.0788
  2022.0788  2023.8240  2007.2443  2008.9895  2008.9895  2010.7347
  2010.7347  2012.4800  2012.4800  2014.2252  2014.2252  2015.9705
  2015.9705  2017.7157  2017.7157  2019.4609  2019.4609  2021.2062