-- This reservoir simulation deck is made available under the Open Database
-- License: http://opendatacommons.org/licenses/odbl/1.0/. Any rights in
-- individual contents of the database are licensed under the Database Contents
-- License: http://opendatacommons.org/licenses/dbcl/1.0/

-- Copyright (C) 2024 Equinor


SPECGRID
 12 15 6 1 F / 

COORD
  2000.0000  2000.0000  1986.0000   2000.0000  2000.0000  2001.9921 
  2099.9848  2000.0000  1987.7452   2099.9848  2000.0000  2003.7373 
  2199.9695  2000.0000  1989.4905   2199.9695  2000.0000  2005.4826 
  2299.9543  2000.0000  1991.2357   2299.9543  2000.0000  2007.2278 
  2399.9391  2000.0000  1998.9810   2399.9391  2000.0000  2014.9730 
  2499.9238  2000.0000  2000.7262   2499.9238  2000.0000  2016.7183 
  2599.9086  2000.0000  2002.4714   2599.9086  2000.0000  2018.4635 
  2699.8934  2000.0000  2008.2167   2699.8934  2000.0000  2024.2088 
  2799.8782  2000.0000  2009.9619   2799.8782  2000.0000  2025.9540 
  2899.8629  2000.0000  2011.7072   2899.8629  2000.0000  2027.6992 
  2999.8477  2000.0000  2013.4524   2999.8477  2000.0000  2029.4445 
  3099.8325  2000.0000  2015.1976   3099.8325  2000.0000  2031.1897 
  3199.8172  2000.0000  2016.9429   3199.8172  2000.0000  2032.9350 
  2000.0000  2099.9657  1988.6177   2000.0000  2099.9657  2004.6098 
  2099.9848  2099.9657  1990.3629   2099.9848  2099.9657  2006.3550 
  2199.9695  2099.9657  1992.1082   2199.9695  2099.9657  2008.1003 
  2299.9543  2099.9657  1993.8534   2299.9543  2099.9657  2009.8455 
  2399.9391  2099.9657  2001.5987   2399.9391  2099.9657  2017.5907 
  2499.9238  2099.9657  2003.3439   2499.9238  2099.9657  2019.3360 
  2599.9086  2099.9657  2005.0891   2599.9086  2099.9657  2021.0812 
  2699.8934  2099.9657  2010.8344   2699.8934  2099.9657  2026.8265 
  2799.8782  2099.9657  2012.5796   2799.8782  2099.9657  2028.5717 
  2899.8629  2099.9657  2014.3249   2899.8629  2099.9657  2030.3169 
  2999.8477  2099.9657  2016.0701   2999.8477  2099.9657  2032.0622 
  3099.8325  2099.9657  2017.8153   3099.8325  2099.9657  2033.8074 
  3199.8172  2099.9657  2019.5606   3199.8172  2099.9657  2035.5527 
  2000.0000  2199.9315  1991.2354   2000.0000  2199.9315  2007.2275 
  2099.9848  2199.9315  1992.9806   2099.9848  2199.9315  2008.9727 
  2199.9695  2199.9315  1994.7259   2199.9695  2199.9315  2010.7180 
  2299.9543  2199.9315  1996.4711   2299.9543  2199.9315  2012.4632 
  2399.9391  2199.9315  2004.2164   2399.9391  2199.9315  2020.2084 
  2499.9238  2199.9315  2005.9616   2499.9238  2199.9315  2021.9537 
  2599.9086  2199.9315  2007.7068   2599.9086  2199.9315  2023.6989 
  2699.8934  2199.9315  2013.4521   2699.8934  2199.9315  2029.4442 
  2799.8782  2199.9315  2015.1973   2799.8782  2199.9315  2031.1894 
  2899.8629  2199.9315  2016.9426   2899.8629  2199.9315  2032.9346 
  2999.8477  2199.9315  2018.6878   2999.8477  2199.9315  2034.6799 
  3099.8325  2199.9315  2020.4330   3099.8325  2199.9315  2036.4251 
  3199.8172  2199.9315  2022.1783   3199.8172  2199.9315  2038.1704 
  2000.0000  2299.8972  1993.8531   2000.0000  2299.8972  2009.8452 
  2099.9848  2299.8972  1995.5983   2099.9848  2299.8972  2011.5904 
  2199.9695  2299.8972  1997.3436   2199.9695  2299.8972  2013.3356 
  2299.9543  2299.8972  1999.0888   2299.9543  2299.8972  2015.0809 
  2399.9391  2299.8972  2006.8340   2399.9391  2299.8972  2022.8261 
  2499.9238  2299.8972  2008.5793   2499.9238  2299.8972  2024.5714 
  2599.9086  2299.8972  2010.3245   2599.9086  2299.8972  2026.3166 
  2699.8934  2299.8972  2016.0698   2699.8934  2299.8972  2032.0618 
  2799.8782  2299.8972  2017.8150   2799.8782  2299.8972  2033.8071 
  2899.8629  2299.8972  2019.5603   2899.8629  2299.8972  2035.5523 
  2999.8477  2299.8972  2021.3055   2999.8477  2299.8972  2037.2976 
  3099.8325  2299.8972  2023.0507   3099.8325  2299.8972  2039.0428 
  3199.8172  2299.8972  2024.7960   3199.8172  2299.8972  2040.7881 
  2000.0000  2399.8629  1996.4708   2000.0000  2399.8629  2012.4629 
  2099.9848  2399.8629  1998.2160   2099.9848  2399.8629  2014.2081 
  2199.9695  2399.8629  1999.9613   2199.9695  2399.8629  2015.9533 
  2299.9543  2399.8629  2001.7065   2299.9543  2399.8629  2017.6986 
  2399.9391  2399.8629  2009.4517   2399.9391  2399.8629  2025.4438 
  2499.9238  2399.8629  2011.1970   2499.9238  2399.8629  2027.1891 
  2599.9086  2399.8629  2012.9422   2599.9086  2399.8629  2028.9343 
  2699.8934  2399.8629  2018.6875   2699.8934  2399.8629  2034.6795 
  2799.8782  2399.8629  2020.4327   2799.8782  2399.8629  2036.4248 
  2899.8629  2399.8629  2022.1779   2899.8629  2399.8629  2038.1700 
  2999.8477  2399.8629  2023.9232   2999.8477  2399.8629  2039.9153 
  3099.8325  2399.8629  2025.6684   3099.8325  2399.8629  2041.6605 
  3199.8172  2399.8629  2027.4137   3199.8172  2399.8629  2043.4057 
  2000.0000  2499.8287  1999.0885   2000.0000  2499.8287  2015.0806 
  2099.9848  2499.8287  2000.8337   2099.9848  2499.8287  2016.8258 
  2199.9695  2499.8287  2002.5790   2199.9695  2499.8287  2018.5710 
  2299.9543  2499.8287  2004.3242   2299.9543  2499.8287  2020.3163 
  2399.9391  2499.8287  2012.0694   2399.9391  2499.8287  2028.0615 
  2499.9238  2499.8287  2013.8147   2499.9238  2499.8287  2029.8068 
  2599.9086  2499.8287  2015.5599   2599.9086  2499.8287  2031.5520 
  2699.8934  2499.8287  2021.3052   2699.8934  2499.8287  2037.2972 
  2799.8782  2499.8287  2023.0504   2799.8782  2499.8287  2039.0425 
  2899.8629  2499.8287  2024.7956   2899.8629  2499.8287  2040.7877 
  2999.8477  2499.8287  2026.5409   2999.8477  2499.8287  2042.5330 
  3099.8325  2499.8287  2028.2861   3099.8325  2499.8287  2044.2782 
  3199.8172  2499.8287  2030.0314   3199.8172  2499.8287  2046.0234 
  2000.0000  2599.7944  2001.7062   2000.0000  2599.7944  2017.6982 
  2099.9848  2599.7944  2003.4514   2099.9848  2599.7944  2019.4435 
  2199.9695  2599.7944  2005.1967   2199.9695  2599.7944  2021.1887 
  2299.9543  2599.7944  2006.9419   2299.9543  2599.7944  2022.9340 
  2399.9391  2599.7944  2014.6871   2399.9391  2599.7944  2030.6792 
  2499.9238  2599.7944  2016.4324   2499.9238  2599.7944  2032.4245 
  2599.9086  2599.7944  2018.1776   2599.9086  2599.7944  2034.1697 
  2699.8934  2599.7944  2023.9229   2699.8934  2599.7944  2039.9149 
  2799.8782  2599.7944  2025.6681   2799.8782  2599.7944  2041.6602 
  2899.8629  2599.7944  2027.4133   2899.8629  2599.7944  2043.4054 
  2999.8477  2599.7944  2029.1586   2999.8477  2599.7944  2045.1507 
  3099.8325  2599.7944  2030.9038   3099.8325  2599.7944  2046.8959 
  3199.8172  2599.7944  2032.6491   3199.8172  2599.7944  2048.6411 
  2000.0000  2699.7601  2025.3239   2000.0000  2699.7601  2041.3159 
  2099.9848  2699.7601  2027.0691   2099.9848  2699.7601  2043.0612 
  2199.9695  2699.7601  2028.8143   2199.9695  2699.7601  2044.8064 
  2299.9543  2699.7601  2030.5596   2299.9543  2699.7601  2046.5517 
  2399.9391  2699.7601  2032.3048   2399.9391  2699.7601  2048.2969 
  2499.9238  2699.7601  2031.0501   2499.9238  2699.7601  2047.0421 
  2599.9086  2699.7601  2032.7953   2599.9086  2699.7601  2048.7874 
  2699.8934  2699.7601  2034.5405   2699.8934  2699.7601  2050.5326 
  2799.8782  2699.7601  2032.2858   2799.8782  2699.7601  2048.2779 
  2899.8629  2699.7601  2034.0310   2899.8629  2699.7601  2050.0231 
  2999.8477  2699.7601  2035.7763   2999.8477  2699.7601  2051.7684 
  3099.8325  2699.7601  2037.5215   3099.8325  2699.7601  2053.5136 
  3199.8172  2699.7601  2039.2668   3199.8172  2699.7601  2055.2588 
  2000.0000  2799.7259  2027.9416   2000.0000  2799.7259  2043.9336 
  2099.9848  2799.7259  2029.6868   2099.9848  2799.7259  2045.6789 
  2199.9695  2799.7259  2031.4320   2199.9695  2799.7259  2047.4241 
  2299.9543  2799.7259  2033.1773   2299.9543  2799.7259  2049.1694 
  2399.9391  2799.7259  2034.9225   2399.9391  2799.7259  2050.9146 
  2499.9238  2799.7259  2033.6678   2499.9238  2799.7259  2049.6598 
  2599.9086  2799.7259  2035.4130   2599.9086  2799.7259  2051.4051 
  2699.8934  2799.7259  2037.1582   2699.8934  2799.7259  2053.1503 
  2799.8782  2799.7259  2034.9035   2799.8782  2799.7259  2050.8956 
  2899.8629  2799.7259  2036.6487   2899.8629  2799.7259  2052.6408 
  2999.8477  2799.7259  2038.3940   2999.8477  2799.7259  2054.3860 
  3099.8325  2799.7259  2040.1392   3099.8325  2799.7259  2056.1313 
  3199.8172  2799.7259  2041.8844   3199.8172  2799.7259  2057.8765 
  2000.0000  2899.6916  2030.5593   2000.0000  2899.6916  2046.5513 
  2099.9848  2899.6916  2032.3045   2099.9848  2899.6916  2048.2966 
  2199.9695  2899.6916  2034.0497   2199.9695  2899.6916  2050.0418 
  2299.9543  2899.6916  2035.7950   2299.9543  2899.6916  2051.7871 
  2399.9391  2899.6916  2037.5402   2399.9391  2899.6916  2053.5323 
  2499.9238  2899.6916  2036.2855   2499.9238  2899.6916  2052.2775 
  2599.9086  2899.6916  2038.0307   2599.9086  2899.6916  2054.0228 
  2699.8934  2899.6916  2039.7759   2699.8934  2899.6916  2055.7680 
  2799.8782  2899.6916  2037.5212   2799.8782  2899.6916  2053.5133 
  2899.8629  2899.6916  2039.2664   2899.8629  2899.6916  2055.2585 
  2999.8477  2899.6916  2041.0117   2999.8477  2899.6916  2057.0037 
  3099.8325  2899.6916  2042.7569   3099.8325  2899.6916  2058.7490 
  3199.8172  2899.6916  2044.5021   3199.8172  2899.6916  2060.4942 
  2000.0000  2999.6573  2033.1769   2000.0000  2999.6573  2049.1690 
  2099.9848  2999.6573  2034.9222   2099.9848  2999.6573  2050.9143 
  2199.9695  2999.6573  2036.6674   2199.9695  2999.6573  2052.6595 
  2299.9543  2999.6573  2038.4127   2299.9543  2999.6573  2054.4048 
  2399.9391  2999.6573  2040.1579   2399.9391  2999.6573  2056.1500 
  2499.9238  2999.6573  2038.9032   2499.9238  2999.6573  2054.8952 
  2599.9086  2999.6573  2040.6484   2599.9086  2999.6573  2056.6405 
  2699.8934  2999.6573  2042.3936   2699.8934  2999.6573  2058.3857 
  2799.8782  2999.6573  2040.1389   2799.8782  2999.6573  2056.1310 
  2899.8629  2999.6573  2041.8841   2899.8629  2999.6573  2057.8762 
  2999.8477  2999.6573  2043.6294   2999.8477  2999.6573  2059.6214 
  3099.8325  2999.6573  2045.3746   3099.8325  2999.6573  2061.3667 
  3199.8172  2999.6573  2047.1198   3199.8172  2999.6573  2063.1119 
  2000.0000  3099.6231  2035.7946   2000.0000  3099.6231  2051.7867 
  2099.9848  3099.6231  2037.5399   2099.9848  3099.6231  2053.5320 
  2199.9695  3099.6231  2039.2851   2199.9695  3099.6231  2055.2772 
  2299.9543  3099.6231  2041.0304   2299.9543  3099.6231  2057.0224 
  2399.9391  3099.6231  2042.7756   2399.9391  3099.6231  2058.7677 
  2499.9238  3099.6231  2041.5208   2499.9238  3099.6231  2057.5129 
  2599.9086  3099.6231  2043.2661   2599.9086  3099.6231  2059.2582 
  2699.8934  3099.6231  2045.0113   2699.8934  3099.6231  2061.0034 
  2799.8782  3099.6231  2042.7566   2799.8782  3099.6231  2058.7486 
  2899.8629  3099.6231  2044.5018   2899.8629  3099.6231  2060.4939 
  2999.8477  3099.6231  2046.2470   2999.8477  3099.6231  2062.2391 
  3099.8325  3099.6231  2047.9923   3099.8325  3099.6231  2063.9844 
  3199.8172  3099.6231  2049.7375   3199.8172  3099.6231  2065.7296 
  2000.0000  3199.5888  2038.4123   2000.0000  3199.5888  2054.4044 
  2099.9848  3199.5888  2040.1576   2099.9848  3199.5888  2056.1497 
  2199.9695  3199.5888  2041.9028   2199.9695  3199.5888  2057.8949 
  2299.9543  3199.5888  2043.6481   2299.9543  3199.5888  2059.6401 
  2399.9391  3199.5888  2045.3933   2399.9391  3199.5888  2061.3854 
  2499.9238  3199.5888  2044.1385   2499.9238  3199.5888  2060.1306 
  2599.9086  3199.5888  2045.8838   2599.9086  3199.5888  2061.8759 
  2699.8934  3199.5888  2047.6290   2699.8934  3199.5888  2063.6211 
  2799.8782  3199.5888  2045.3743   2799.8782  3199.5888  2061.3663 
  2899.8629  3199.5888  2047.1195   2899.8629  3199.5888  2063.1116 
  2999.8477  3199.5888  2048.8647   2999.8477  3199.5888  2064.8568 
  3099.8325  3199.5888  2050.6100   3099.8325  3199.5888  2066.6021 
  3199.8172  3199.5888  2052.3552   3199.8172  3199.5888  2068.3473 
  2000.0000  3299.5545  2041.0300   2000.0000  3299.5545  2057.0221 
  2099.9848  3299.5545  2042.7753   2099.9848  3299.5545  2058.7674 
  2199.9695  3299.5545  2044.5205   2199.9695  3299.5545  2060.5126 
  2299.9543  3299.5545  2046.2658   2299.9543  3299.5545  2062.2578 
  2399.9391  3299.5545  2048.0110   2399.9391  3299.5545  2064.0031 
  2499.9238  3299.5545  2046.7562   2499.9238  3299.5545  2062.7483 
  2599.9086  3299.5545  2048.5015   2599.9086  3299.5545  2064.4936 
  2699.8934  3299.5545  2050.2467   2699.8934  3299.5545  2066.2388 
  2799.8782  3299.5545  2047.9920   2799.8782  3299.5545  2063.9840 
  2899.8629  3299.5545  2049.7372   2899.8629  3299.5545  2065.7293 
  2999.8477  3299.5545  2051.4824   2999.8477  3299.5545  2067.4745 
  3099.8325  3299.5545  2053.2277   3099.8325  3299.5545  2069.2198 
  3199.8172  3299.5545  2054.9729   3199.8172  3299.5545  2070.9650 
  2000.0000  3399.5203  2043.6477   2000.0000  3399.5203  2059.6398 
  2099.9848  3399.5203  2045.3930   2099.9848  3399.5203  2061.3850 
  2199.9695  3399.5203  2047.1382   2199.9695  3399.5203  2063.1303 
  2299.9543  3399.5203  2048.8834   2299.9543  3399.5203  2064.8755 
  2399.9391  3399.5203  2050.6287   2399.9391  3399.5203  2066.6208 
  2499.9238  3399.5203  2049.3739   2499.9238  3399.5203  2065.3660 
  2599.9086  3399.5203  2051.1192   2599.9086  3399.5203  2067.1113 
  2699.8934  3399.5203  2052.8644   2699.8934  3399.5203  2068.8565 
  2799.8782  3399.5203  2050.6097   2799.8782  3399.5203  2066.6017 
  2899.8629  3399.5203  2052.3549   2899.8629  3399.5203  2068.3470 
  2999.8477  3399.5203  2054.1001   2999.8477  3399.5203  2070.0922 
  3099.8325  3399.5203  2055.8454   3099.8325  3399.5203  2071.8375 
  3199.8172  3399.5203  2057.5906   3199.8172  3399.5203  2073.5827 
  2000.0000  3499.4860  2046.2654   2000.0000  3499.4860  2062.2575 
  2099.9848  3499.4860  2048.0107   2099.9848  3499.4860  2064.0027 
  2199.9695  3499.4860  2049.7559   2199.9695  3499.4860  2065.7480 
  2299.9543  3499.4860  2051.5011   2299.9543  3499.4860  2067.4932 
  2399.9391  3499.4860  2053.2464   2399.9391  3499.4860  2069.2385 
  2499.9238  3499.4860  2051.9916   2499.9238  3499.4860  2067.9837 
  2599.9086  3499.4860  2053.7369   2599.9086  3499.4860  2069.7289 
  2699.8934  3499.4860  2055.4821   2699.8934  3499.4860  2071.4742 
  2799.8782  3499.4860  2053.2273   2799.8782  3499.4860  2069.2194 
  2899.8629  3499.4860  2054.9726   2899.8629  3499.4860  2070.9647 
  2999.8477  3499.4860  2056.7178   2999.8477  3499.4860  2072.7099 
  3099.8325  3499.4860  2058.4631   3099.8325  3499.4860  2074.4551 
  3199.8172  3499.4860  2060.2083   3199.8172  3499.4860  2076.2004 
/ 

ZCORN
  1986.0000  1987.7452  1987.7452  1989.4905  1989.4905  1991.2357
  1991.2357  1992.9810  1998.9810  2000.7262  2000.7262  2002.4714
  2002.4714  2004.2167  2008.2167  2009.9619  2009.9619  2011.7072
  2011.7072  2013.4524  2013.4524  2015.1976  2015.1976  2016.9429
  1988.6177  1990.3629  1990.3629  1992.1082  1992.1082  1993.8534
  1993.8534  1995.5987  2001.5987  2003.3439  2003.3439  2005.0891
  2005.0891  2006.8344  2010.8344  2012.5796  2012.5796  2014.3249
  2014.3249  2016.0701  2016.0701  2017.8153  2017.8153  2019.5606
  1988.6177  1990.3629  1990.3629  1992.1082  1992.1082  1993.8534
  1993.8534  1995.5987  2001.5987  2003.3439  2003.3439  2005.0891
  2005.0891  2006.8344  2010.8344  2012.5796  2012.5796  2014.3249
  2014.3249  2016.0701  2016.0701  2017.8153  2017.8153  2019.5606
  1991.2354  1992.9806  1992.9806  1994.7259  1994.7259  1996.4711
  1996.4711  1998.2164  2004.2164  2005.9616  2005.9616  2007.7068
  2007.7068  2009.4521  2013.4521  2015.1973  2015.1973  2016.9426
  2016.9426  2018.6878  2018.6878  2020.4330  2020.4330  2022.1783
  1991.2354  1992.9806  1992.9806  1994.7259  1994.7259  1996.4711
  1996.4711  1998.2164  2004.2164  2005.9616  2005.9616  2007.7068
  2007.7068  2009.4521  2013.4521  2015.1973  2015.1973  2016.9426
  2016.9426  2018.6878  2018.6878  2020.4330  2020.4330  2022.1783
  1993.8531  1995.5983  1995.5983  1997.3436  1997.3436  1999.0888
  1999.0888  2000.8340  2006.8340  2008.5793  2008.5793  2010.3245
  2010.3245  2012.0698  2016.0698  2017.8150  2017.8150  2019.5603
  2019.5603  2021.3055  2021.3055  2023.0507  2023.0507  2024.7960
  1993.8531  1995.5983  1995.5983  1997.3436  1997.3436  1999.0888
  1999.0888  2000.8340  2006.8340  2008.5793  2008.5793  2010.3245
  2010.3245  2012.0698  2016.0698  2017.8150  2017.8150  2019.5603
  2019.5603  2021.3055  2021.3055  2023.0507  2023.0507  2024.7960
  1996.4708  1998.2160  1998.2160  1999.9613  1999.9613  2001.7065
  2001.7065  2003.4517  2009.4517  2011.1970  2011.1970  2012.9422
  2012.9422  2014.6875  2018.6875  2020.4327  2020.4327  2022.1779
  2022.1779  2023.9232  2023.9232  2025.6684  2025.6684  2027.4137
  1996.4708  1998.2160  1998.2160  1999.9613  1999.9613  2001.7065
  2001.7065  2003.4517  2009.4517  2011.1970  2011.1970  2012.9422
  2012.9422  2014.6875  2018.6875  2020.4327  2020.4327  2022.1779
  2022.1779  2023.9232  2023.9232  2025.6684  2025.6684  2027.4137
  1999.0885  2000.8337  2000.8337  2002.5790  2002.5790  2004.3242
  2004.3242  2006.0694  2012.0694  2013.8147  2013.8147  2015.5599
  2015.5599  2017.3052  2021.3052  2023.0504  2023.0504  2024.7956
  2024.7956  2026.5409  2026.5409  2028.2861  2028.2861  2030.0314
  1999.0885  2000.8337  2000.8337  2002.5790  2002.5790  2004.3242
  2004.3242  2006.0694  2012.0694  2013.8147  2013.8147  2015.5599
  2015.5599  2017.3052  2021.3052  2023.0504  2023.0504  2024.7956
  2024.7956  2026.5409  2026.5409  2028.2861  2028.2861  2030.0314
  2001.7062  2003.4514  2003.4514  2005.1967  2005.1967  2006.9419
  2006.9419  2008.6871  2014.6871  2016.4324  2016.4324  2018.1776
  2018.1776  2019.9229  2023.9229  2025.6681  2025.6681  2027.4133
  2027.4133  2029.1586  2029.1586  2030.9038  2030.9038  2032.6491
  2001.7062  2003.4514  2003.4514  2005.1967  2005.1967  2006.9419
  2006.9419  2008.6871  2014.6871  2016.4324  2016.4324  2018.1776
  2018.1776  2019.9229  2023.9229  2025.6681  2025.6681  2027.4133
  2027.4133  2029.1586  2029.1586  2030.9038  2030.9038  2032.6491
  2004.3239  2006.0691  2006.0691  2007.8143  2007.8143  2009.5596
  2009.5596  2011.3048  2017.3048  2019.0501  2019.0501  2020.7953
  2020.7953  2022.5405  2026.5405  2028.2858  2028.2858  2030.0310
  2030.0310  2031.7763  2031.7763  2033.5215  2033.5215  2035.2668
  2025.3239  2027.0691  2027.0691  2028.8143  2028.8143  2030.5596
  2030.5596  2032.3048  2032.3048  2034.0501  2031.0501  2032.7953
  2032.7953  2034.5405  2034.5405  2036.2858  2032.2858  2034.0310
  2034.0310  2035.7763  2035.7763  2037.5215  2037.5215  2039.2668
  2027.9416  2029.6868  2029.6868  2031.4320  2031.4320  2033.1773
  2033.1773  2034.9225  2034.9225  2036.6678  2033.6678  2035.4130
  2035.4130  2037.1582  2037.1582  2038.9035  2034.9035  2036.6487
  2036.6487  2038.3940  2038.3940  2040.1392  2040.1392  2041.8844
  2027.9416  2029.6868  2029.6868  2031.4320  2031.4320  2033.1773
  2033.1773  2034.9225  2034.9225  2036.6678  2033.6678  2035.4130
  2035.4130  2037.1582  2037.1582  2038.9035  2034.9035  2036.6487
  2036.6487  2038.3940  2038.3940  2040.1392  2040.1392  2041.8844
  2030.5593  2032.3045  2032.3045  2034.0497  2034.0497  2035.7950
  2035.7950  2037.5402  2037.5402  2039.2855  2036.2855  2038.0307
  2038.0307  2039.7759  2039.7759  2041.5212  2037.5212  2039.2664
  2039.2664  2041.0117  2041.0117  2042.7569  2042.7569  2044.5021
  2030.5593  2032.3045  2032.3045  2034.0497  2034.0497  2035.7950
  2035.7950  2037.5402  2037.5402  2039.2855  2036.2855  2038.0307
  2038.0307  2039.7759  2039.7759  2041.5212  2037.5212  2039.2664
  2039.2664  2041.0117  2041.0117  2042.7569  2042.7569  2044.5021
  2033.1769  2034.9222  2034.9222  2036.6674  2036.6674  2038.4127
  2038.4127  2040.1579  2040.1579  2041.9032  2038.9032  2040.6484
  2040.6484  2042.3936  2042.3936  2044.1389  2040.1389  2041.8841
  2041.8841  2043.6294  2043.6294  2045.3746  2045.3746  2047.1198
  2033.1769  2034.9222  2034.9222  2036.6674  2036.6674  2038.4127
  2038.4127  2040.1579  2040.1579  2041.9032  2038.9032  2040.6484
  2040.6484  2042.3936  2042.3936  2044.1389  2040.1389  2041.8841
  2041.8841  2043.6294  2043.6294  2045.3746  2045.3746  2047.1198
  2035.7946  2037.5399  2037.5399  2039.2851  2039.2851  2041.0304
  2041.0304  2042.7756  2042.7756  2044.5208  2041.5208  2043.2661
  2043.2661  2045.0113  2045.0113  2046.7566  2042.7566  2044.5018
  2044.5018  2046.2470  2046.2470  2047.9923  2047.9923  2049.7375
  2035.7946  2037.5399  2037.5399  2039.2851  2039.2851  2041.0304
  2041.0304  2042.7756  2042.7756  2044.5208  2041.5208  2043.2661
  2043.2661  2045.0113  2045.0113  2046.7566  2042.7566  2044.5018
  2044.5018  2046.2470  2046.2470  2047.9923  2047.9923  2049.7375
  2038.4123  2040.1576  2040.1576  2041.9028  2041.9028  2043.6481
  2043.6481  2045.3933  2045.3933  2047.1385  2044.1385  2045.8838
  2045.8838  2047.6290  2047.6290  2049.3743  2045.3743  2047.1195
  2047.1195  2048.8647  2048.8647  2050.6100  2050.6100  2052.3552
  2038.4123  2040.1576  2040.1576  2041.9028  2041.9028  2043.6481
  2043.6481  2045.3933  2045.3933  2047.1385  2044.1385  2045.8838
  2045.8838  2047.6290  2047.6290  2049.3743  2045.3743  2047.1195
  2047.1195  2048.8647  2048.8647  2050.6100  2050.6100  2052.3552
  2041.0300  2042.7753  2042.7753  2044.5205  2044.5205  2046.2658
  2046.2658  2048.0110  2048.0110  2049.7562  2046.7562  2048.5015
  2048.5015  2050.2467  2050.2467  2051.9920  2047.9920  2049.7372
  2049.7372  2051.4824  2051.4824  2053.2277  2053.2277  2054.9729
  2041.0300  2042.7753  2042.7753  2044.5205  2044.5205  2046.2658
  2046.2658  2048.0110  2048.0110  2049.7562  2046.7562  2048.5015
  2048.5015  2050.2467  2050.2467  2051.9920  2047.9920  2049.7372
  2049.7372  2051.4824  2051.4824  2053.2277  2053.2277  2054.9729
  2043.6477  2045.3930  2045.3930  2047.1382  2047.1382  2048.8834
  2048.8834  2050.6287  2050.6287  2052.3739  2049.3739  2051.1192
  2051.1192  2052.8644  2052.8644  2054.6097  2050.6097  2052.3549
  2052.3549  2054.1001  2054.1001  2055.8454  2055.8454  2057.5906
  2043.6477  2045.3930  2045.3930  2047.1382  2047.1382  2048.8834
  2048.8834  2050.6287  2050.6287  2052.3739  2049.3739  2051.1192
  2051.1192  2052.8644  2052.8644  2054.6097  2050.6097  2052.3549
  2052.3549  2054.1001  2054.1001  2055.8454  2055.8454  2057.5906
  2046.2654  2048.0107  2048.0107  2049.7559  2049.7559  2051.5011
  2051.5011  2053.2464  2053.2464  2054.9916  2051.9916  2053.7369
  2053.7369  2055.4821  2055.4821  2057.2273  2053.2273  2054.9726
  2054.9726  2056.7178  2056.7178  2058.4631  2058.4631  2060.2083
  1988.4988  1990.2440  1990.2440  1991.9892  1991.9892  1993.7345
  1993.7345  1995.4797  2001.4797  2003.2250  2003.2250  2004.9702
  2004.9702  2006.7154  2010.7154  2012.4607  2012.4607  2014.2059
  2014.2059  2015.9512  2015.9512  2017.6964  2017.6964  2019.4417
  1991.1165  1992.8617  1992.8617  1994.6069  1994.6069  1996.3522
  1996.3522  1998.0974  2004.0974  2005.8427  2005.8427  2007.5879
  2007.5879  2009.3331  2013.3331  2015.0784  2015.0784  2016.8236
  2016.8236  2018.5689  2018.5689  2020.3141  2020.3141  2022.0593
  1991.1165  1992.8617  1992.8617  1994.6069  1994.6069  1996.3522
  1996.3522  1998.0974  2004.0974  2005.8427  2005.8427  2007.5879
  2007.5879  2009.3331  2013.3331  2015.0784  2015.0784  2016.8236
  2016.8236  2018.5689  2018.5689  2020.3141  2020.3141  2022.0593
  1993.7342  1995.4794  1995.4794  1997.2246  1997.2246  1998.9699
  1998.9699  2000.7151  2006.7151  2008.4604  2008.4604  2010.2056
  2010.2056  2011.9508  2015.9508  2017.6961  2017.6961  2019.4413
  2019.4413  2021.1866  2021.1866  2022.9318  2022.9318  2024.6770
  1993.7342  1995.4794  1995.4794  1997.2246  1997.2246  1998.9699
  1998.9699  2000.7151  2006.7151  2008.4604  2008.4604  2010.2056
  2010.2056  2011.9508  2015.9508  2017.6961  2017.6961  2019.4413
  2019.4413  2021.1866  2021.1866  2022.9318  2022.9318  2024.6770
  1996.3518  1998.0971  1998.0971  1999.8423  1999.8423  2001.5876
  2001.5876  2003.3328  2009.3328  2011.0781  2011.0781  2012.8233
  2012.8233  2014.5685  2018.5685  2020.3138  2020.3138  2022.0590
  2022.0590  2023.8043  2023.8043  2025.5495  2025.5495  2027.2947
  1996.3518  1998.0971  1998.0971  1999.8423  1999.8423  2001.5876
  2001.5876  2003.3328  2009.3328  2011.0781  2011.0781  2012.8233
  2012.8233  2014.5685  2018.5685  2020.3138  2020.3138  2022.0590
  2022.0590  2023.8043  2023.8043  2025.5495  2025.5495  2027.2947
  1998.9695  2000.7148  2000.7148  2002.4600  2002.4600  2004.2053
  2004.2053  2005.9505  2011.9505  2013.6957  2013.6957  2015.4410
  2015.4410  2017.1862  2021.1862  2022.9315  2022.9315  2024.6767
  2024.6767  2026.4219  2026.4219  2028.1672  2028.1672  2029.9124
  1998.9695  2000.7148  2000.7148  2002.4600  2002.4600  2004.2053
  2004.2053  2005.9505  2011.9505  2013.6957  2013.6957  2015.4410
  2015.4410  2017.1862  2021.1862  2022.9315  2022.9315  2024.6767
  2024.6767  2026.4219  2026.4219  2028.1672  2028.1672  2029.9124
  2001.5872  2003.3325  2003.3325  2005.0777  2005.0777  2006.8230
  2006.8230  2008.5682  2014.5682  2016.3134  2016.3134  2018.0587
  2018.0587  2019.8039  2023.8039  2025.5492  2025.5492  2027.2944
  2027.2944  2029.0396  2029.0396  2030.7849  2030.7849  2032.5301
  2001.5872  2003.3325  2003.3325  2005.0777  2005.0777  2006.8230
  2006.8230  2008.5682  2014.5682  2016.3134  2016.3134  2018.0587
  2018.0587  2019.8039  2023.8039  2025.5492  2025.5492  2027.2944
  2027.2944  2029.0396  2029.0396  2030.7849  2030.7849  2032.5301
  2004.2049  2005.9502  2005.9502  2007.6954  2007.6954  2009.4407
  2009.4407  2011.1859  2017.1859  2018.9311  2018.9311  2020.6764
  2020.6764  2022.4216  2026.4216  2028.1669  2028.1669  2029.9121
  2029.9121  2031.6573  2031.6573  2033.4026  2033.4026  2035.1478
  2004.2049  2005.9502  2005.9502  2007.6954  2007.6954  2009.4407
  2009.4407  2011.1859  2017.1859  2018.9311  2018.9311  2020.6764
  2020.6764  2022.4216  2026.4216  2028.1669  2028.1669  2029.9121
  2029.9121  2031.6573  2031.6573  2033.4026  2033.4026  2035.1478
  2006.8226  2008.5679  2008.5679  2010.3131  2010.3131  2012.0583
  2012.0583  2013.8036  2019.8036  2021.5488  2021.5488  2023.2941
  2023.2941  2025.0393  2029.0393  2030.7846  2030.7846  2032.5298
  2032.5298  2034.2750  2034.2750  2036.0203  2036.0203  2037.7655
  2027.8226  2029.5679  2029.5679  2031.3131  2031.3131  2033.0583
  2033.0583  2034.8036  2034.8036  2036.5488  2033.5488  2035.2941
  2035.2941  2037.0393  2037.0393  2038.7846  2034.7846  2036.5298
  2036.5298  2038.2750  2038.2750  2040.0203  2040.0203  2041.7655
  2030.4403  2032.1856  2032.1856  2033.9308  2033.9308  2035.6760
  2035.6760  2037.4213  2037.4213  2039.1665  2036.1665  2037.9118
  2037.9118  2039.6570  2039.6570  2041.4022  2037.4022  2039.1475
  2039.1475  2040.8927  2040.8927  2042.6380  2042.6380  2044.3832
  2030.4403  2032.1856  2032.1856  2033.9308  2033.9308  2035.6760
  2035.6760  2037.4213  2037.4213  2039.1665  2036.1665  2037.9118
  2037.9118  2039.6570  2039.6570  2041.4022  2037.4022  2039.1475
  2039.1475  2040.8927  2040.8927  2042.6380  2042.6380  2044.3832
  2033.0580  2034.8033  2034.8033  2036.5485  2036.5485  2038.2937
  2038.2937  2040.0390  2040.0390  2041.7842  2038.7842  2040.5295
  2040.5295  2042.2747  2042.2747  2044.0199  2040.0199  2041.7652
  2041.7652  2043.5104  2043.5104  2045.2557  2045.2557  2047.0009
  2033.0580  2034.8033  2034.8033  2036.5485  2036.5485  2038.2937
  2038.2937  2040.0390  2040.0390  2041.7842  2038.7842  2040.5295
  2040.5295  2042.2747  2042.2747  2044.0199  2040.0199  2041.7652
  2041.7652  2043.5104  2043.5104  2045.2557  2045.2557  2047.0009
  2035.6757  2037.4210  2037.4210  2039.1662  2039.1662  2040.9114
  2040.9114  2042.6567  2042.6567  2044.4019  2041.4019  2043.1472
  2043.1472  2044.8924  2044.8924  2046.6376  2042.6376  2044.3829
  2044.3829  2046.1281  2046.1281  2047.8734  2047.8734  2049.6186
  2035.6757  2037.4210  2037.4210  2039.1662  2039.1662  2040.9114
  2040.9114  2042.6567  2042.6567  2044.4019  2041.4019  2043.1472
  2043.1472  2044.8924  2044.8924  2046.6376  2042.6376  2044.3829
  2044.3829  2046.1281  2046.1281  2047.8734  2047.8734  2049.6186
  2038.2934  2040.0386  2040.0386  2041.7839  2041.7839  2043.5291
  2043.5291  2045.2744  2045.2744  2047.0196  2044.0196  2045.7648
  2045.7648  2047.5101  2047.5101  2049.2553  2045.2553  2047.0006
  2047.0006  2048.7458  2048.7458  2050.4911  2050.4911  2052.2363
  2038.2934  2040.0386  2040.0386  2041.7839  2041.7839  2043.5291
  2043.5291  2045.2744  2045.2744  2047.0196  2044.0196  2045.7648
  2045.7648  2047.5101  2047.5101  2049.2553  2045.2553  2047.0006
  2047.0006  2048.7458  2048.7458  2050.4911  2050.4911  2052.2363
  2040.9111  2042.6563  2042.6563  2044.4016  2044.4016  2046.1468
  2046.1468  2047.8921  2047.8921  2049.6373  2046.6373  2048.3825
  2048.3825  2050.1278  2050.1278  2051.8730  2047.8730  2049.6183
  2049.6183  2051.3635  2051.3635  2053.1087  2053.1087  2054.8540
  2040.9111  2042.6563  2042.6563  2044.4016  2044.4016  2046.1468
  2046.1468  2047.8921  2047.8921  2049.6373  2046.6373  2048.3825
  2048.3825  2050.1278  2050.1278  2051.8730  2047.8730  2049.6183
  2049.6183  2051.3635  2051.3635  2053.1087  2053.1087  2054.8540
  2043.5288  2045.2740  2045.2740  2047.0193  2047.0193  2048.7645
  2048.7645  2050.5098  2050.5098  2052.2550  2049.2550  2051.0002
  2051.0002  2052.7455  2052.7455  2054.4907  2050.4907  2052.2360
  2052.2360  2053.9812  2053.9812  2055.7264  2055.7264  2057.4717
  2043.5288  2045.2740  2045.2740  2047.0193  2047.0193  2048.7645
  2048.7645  2050.5098  2050.5098  2052.2550  2049.2550  2051.0002
  2051.0002  2052.7455  2052.7455  2054.4907  2050.4907  2052.2360
  2052.2360  2053.9812  2053.9812  2055.7264  2055.7264  2057.4717