-- This reservoir simulation deck is made available under the Open Database
-- License: http://opendatacommons.org/licenses/odbl/1.0/. Any rights in
-- individual contents of the database are licensed under the Database Contents
-- License: http://opendatacommons.org/licenses/dbcl/1.0/

-- Copyright (C) 2024 Equinor

SPECGRID
 12 13 9 1 F / 

COORD
  2000.0000  2000.0000  2000.0000   1999.9058  1999.8822  2032.4817 
  2099.9781  2000.0000  2002.0942   2099.8838  1999.8822  2034.5760 
  2199.9561  2000.0000  2004.1885   2199.8619  1999.8822  2036.6702 
  2299.9342  2000.0000  2006.2827   2299.8400  1999.8822  2038.7645 
  2399.9123  2000.0000  2008.3770   2399.8180  1999.8822  2040.8587 
  2499.8903  2000.0000  2010.4712   2499.7961  1999.8822  2042.9529 
  2599.8684  2000.0000  2012.5655   2599.7742  1999.8822  2045.0472 
  2699.8465  2000.0000  2014.6597   2699.7522  1999.8822  2047.1414 
  2799.8245  2000.0000  2016.7539   2799.7303  1999.8822  2049.2357 
  2899.8026  2000.0000  2018.8482   2899.7084  1999.8822  2051.3299 
  2999.7807  2000.0000  2020.9424   2999.6864  1999.8822  2053.4242 
  3099.7588  2000.0000  2023.0367   3099.6645  1999.8822  2055.5184 
  3199.7368  2000.0000  2025.1309   3199.6426  1999.8822  2057.6126 
  2000.0000  2099.9657  2002.6177   1999.9058  2099.8479  2035.0994 
  2099.9781  2099.9657  2004.7119   2099.8838  2099.8479  2037.1937 
  2199.9561  2099.9657  2006.8062   2199.8619  2099.8479  2039.2879 
  2299.9342  2099.9657  2008.9004   2299.8400  2099.8479  2041.3822 
  2399.9123  2099.9657  2010.9947   2399.8180  2099.8479  2043.4764 
  2499.8903  2099.9657  2013.0889   2499.7961  2099.8479  2045.5706 
  2599.8684  2099.9657  2015.1831   2599.7742  2099.8479  2047.6649 
  2699.8465  2099.9657  2017.2774   2699.7522  2099.8479  2049.7591 
  2799.8245  2099.9657  2019.3716   2799.7303  2099.8479  2051.8534 
  2899.8026  2099.9657  2021.4659   2899.7084  2099.8479  2053.9476 
  2999.7807  2099.9657  2023.5601   2999.6864  2099.8479  2056.0418 
  3099.7588  2099.9657  2025.6544   3099.6645  2099.8479  2058.1361 
  3199.7368  2099.9657  2027.7486   3199.6426  2099.8479  2060.2303 
  2000.0000  2199.9315  2005.2354   1999.9058  2199.8137  2037.7171 
  2099.9781  2199.9315  2007.3296   2099.8838  2199.8137  2039.8114 
  2199.9561  2199.9315  2009.4239   2199.8619  2199.8137  2041.9056 
  2299.9342  2199.9315  2011.5181   2299.8400  2199.8137  2043.9999 
  2399.9123  2199.9315  2013.6124   2399.8180  2199.8137  2046.0941 
  2499.8903  2199.9315  2015.7066   2499.7961  2199.8137  2048.1883 
  2599.8684  2199.9315  2017.8008   2599.7742  2199.8137  2050.2826 
  2699.8465  2199.9315  2019.8951   2699.7522  2199.8137  2052.3768 
  2799.8245  2199.9315  2021.9893   2799.7303  2199.8137  2054.4711 
  2899.8026  2199.9315  2024.0836   2899.7084  2199.8137  2056.5653 
  2999.7807  2199.9315  2026.1778   2999.6864  2199.8137  2058.6595 
  3099.7588  2199.9315  2028.2721   3099.6645  2199.8137  2060.7538 
  3199.7368  2199.9315  2030.3663   3199.6426  2199.8137  2062.8480 
  2000.0000  2299.8972  2007.8531   1999.9058  2299.7794  2040.3348 
  2099.9781  2299.8972  2009.9473   2099.8838  2299.7794  2042.4291 
  2199.9561  2299.8972  2012.0416   2199.8619  2299.7794  2044.5233 
  2299.9342  2299.8972  2014.1358   2299.8400  2299.7794  2046.6175 
  2399.9123  2299.8972  2016.2301   2399.8180  2299.7794  2048.7118 
  2499.8903  2299.8972  2018.3243   2499.7961  2299.7794  2050.8060 
  2599.8684  2299.8972  2020.4185   2599.7742  2299.7794  2052.9003 
  2699.8465  2299.8972  2022.5128   2699.7522  2299.7794  2054.9945 
  2799.8245  2299.8972  2024.6070   2799.7303  2299.7794  2057.0888 
  2899.8026  2299.8972  2026.7013   2899.7084  2299.7794  2059.1830 
  2999.7807  2299.8972  2028.7955   2999.6864  2299.7794  2061.2772 
  3099.7588  2299.8972  2030.8897   3099.6645  2299.7794  2063.3715 
  3199.7368  2299.8972  2032.9840   3199.6426  2299.7794  2065.4657 
  2000.0000  2399.8629  2010.4708   1999.9058  2399.7451  2042.9525 
  2099.9781  2399.8629  2012.5650   2099.8838  2399.7451  2045.0468 
  2199.9561  2399.8629  2014.6593   2199.8619  2399.7451  2047.1410 
  2299.9342  2399.8629  2016.7535   2299.8400  2399.7451  2049.2352 
  2399.9123  2399.8629  2018.8477   2399.8180  2399.7451  2051.3295 
  2499.8903  2399.8629  2020.9420   2499.7961  2399.7451  2053.4237 
  2599.8684  2399.8629  2023.0362   2599.7742  2399.7451  2055.5180 
  2699.8465  2399.8629  2025.1305   2699.7522  2399.7451  2057.6122 
  2799.8245  2399.8629  2027.2247   2799.7303  2399.7451  2059.7065 
  2899.8026  2399.8629  2029.3190   2899.7084  2399.7451  2061.8007 
  2999.7807  2399.8629  2031.4132   2999.6864  2399.7451  2063.8949 
  3099.7588  2399.8629  2033.5074   3099.6645  2399.7451  2065.9892 
  3199.7368  2399.8629  2035.6017   3199.6426  2399.7451  2068.0834 
  2000.0000  2499.8287  2013.0885   1999.9058  2499.7109  2045.5702 
  2099.9781  2499.8287  2015.1827   2099.8838  2499.7109  2047.6645 
  2199.9561  2499.8287  2017.2770   2199.8619  2499.7109  2049.7587 
  2299.9342  2499.8287  2019.3712   2299.8400  2499.7109  2051.8529 
  2399.9123  2499.8287  2021.4654   2399.8180  2499.7109  2053.9472 
  2499.8903  2499.8287  2023.5597   2499.7961  2499.7109  2056.0414 
  2599.8684  2499.8287  2025.6539   2599.7742  2499.7109  2058.1357 
  2699.8465  2499.8287  2027.7482   2699.7522  2499.7109  2060.2299 
  2799.8245  2499.8287  2029.8424   2799.7303  2499.7109  2062.3241 
  2899.8026  2499.8287  2031.9367   2899.7084  2499.7109  2064.4184 
  2999.7807  2499.8287  2034.0309   2999.6864  2499.7109  2066.5126 
  3099.7588  2499.8287  2036.1251   3099.6645  2499.7109  2068.6069 
  3199.7368  2499.8287  2038.2194   3199.6426  2499.7109  2070.7011 
  2000.0000  2599.7944  2021.5062   1999.9058  2599.6766  2053.9879 
  2099.9781  2599.7944  2023.6004   2099.8838  2599.6766  2056.0821 
  2199.9561  2599.7944  2025.6947   2199.8619  2599.6766  2058.1764 
  2299.9342  2599.7944  2027.7889   2299.8400  2599.6766  2060.2706 
  2399.9123  2599.7944  2029.8831   2399.8180  2599.6766  2062.3649 
  2499.8903  2599.7944  2031.9774   2499.7961  2599.6766  2064.4591 
  2599.8684  2599.7944  2034.0716   2599.7742  2599.6766  2066.5534 
  2699.8465  2599.7944  2036.1659   2699.7522  2599.6766  2068.6476 
  2799.8245  2599.7944  2038.2601   2799.7303  2599.6766  2070.7418 
  2899.8026  2599.7944  2040.3543   2899.7084  2599.6766  2072.8361 
  2999.7807  2599.7944  2042.4486   2999.6864  2599.6766  2074.9303 
  3099.7588  2599.7944  2044.5428   3099.6645  2599.6766  2077.0246 
  3199.7368  2599.7944  2046.6371   3199.6426  2599.6766  2079.1188 
  2000.0000  2699.7601  2024.1239   1999.9058  2699.6423  2056.6056 
  2099.9781  2699.7601  2026.2181   2099.8838  2699.6423  2058.6998 
  2199.9561  2699.7601  2028.3123   2199.8619  2699.6423  2060.7941 
  2299.9342  2699.7601  2030.4066   2299.8400  2699.6423  2062.8883 
  2399.9123  2699.7601  2032.5008   2399.8180  2699.6423  2064.9826 
  2499.8903  2699.7601  2034.5951   2499.7961  2699.6423  2067.0768 
  2599.8684  2699.7601  2036.6893   2599.7742  2699.6423  2069.1711 
  2699.8465  2699.7601  2038.7836   2699.7522  2699.6423  2071.2653 
  2799.8245  2699.7601  2040.8778   2799.7303  2699.6423  2073.3595 
  2899.8026  2699.7601  2042.9720   2899.7084  2699.6423  2075.4538 
  2999.7807  2699.7601  2045.0663   2999.6864  2699.6423  2077.5480 
  3099.7588  2699.7601  2047.1605   3099.6645  2699.6423  2079.6423 
  3199.7368  2699.7601  2049.2548   3199.6426  2699.6423  2081.7365 
  2000.0000  2799.7259  2026.7416   1999.9058  2799.6081  2059.2233 
  2099.9781  2799.7259  2028.8358   2099.8838  2799.6081  2061.3175 
  2199.9561  2799.7259  2030.9300   2199.8619  2799.6081  2063.4118 
  2299.9342  2799.7259  2033.0243   2299.8400  2799.6081  2065.5060 
  2399.9123  2799.7259  2035.1185   2399.8180  2799.6081  2067.6003 
  2499.8903  2799.7259  2037.2128   2499.7961  2799.6081  2069.6945 
  2599.8684  2799.7259  2039.3070   2599.7742  2799.6081  2071.7887 
  2699.8465  2799.7259  2041.4013   2699.7522  2799.6081  2073.8830 
  2799.8245  2799.7259  2043.4955   2799.7303  2799.6081  2075.9772 
  2899.8026  2799.7259  2045.5897   2899.7084  2799.6081  2078.0715 
  2999.7807  2799.7259  2047.6840   2999.6864  2799.6081  2080.1657 
  3099.7588  2799.7259  2049.7782   3099.6645  2799.6081  2082.2600 
  3199.7368  2799.7259  2051.8725   3199.6426  2799.6081  2084.3542 
  2000.0000  2899.6916  2029.3593   1999.9058  2899.5738  2061.8410 
  2099.9781  2899.6916  2031.4535   2099.8838  2899.5738  2063.9352 
  2199.9561  2899.6916  2033.5477   2199.8619  2899.5738  2066.0295 
  2299.9342  2899.6916  2035.6420   2299.8400  2899.5738  2068.1237 
  2399.9123  2899.6916  2037.7362   2399.8180  2899.5738  2070.2180 
  2499.8903  2899.6916  2039.8305   2499.7961  2899.5738  2072.3122 
  2599.8684  2899.6916  2041.9247   2599.7742  2899.5738  2074.4064 
  2699.8465  2899.6916  2044.0189   2699.7522  2899.5738  2076.5007 
  2799.8245  2899.6916  2046.1132   2799.7303  2899.5738  2078.5949 
  2899.8026  2899.6916  2048.2074   2899.7084  2899.5738  2080.6892 
  2999.7807  2899.6916  2050.3017   2999.6864  2899.5738  2082.7834 
  3099.7588  2899.6916  2052.3959   3099.6645  2899.5738  2084.8777 
  3199.7368  2899.6916  2054.4902   3199.6426  2899.5738  2086.9719 
  2000.0000  2999.6573  2031.9769   1999.9058  2999.5395  2064.4587 
  2099.9781  2999.6573  2034.0712   2099.8838  2999.5395  2066.5529 
  2199.9561  2999.6573  2036.1654   2199.8619  2999.5395  2068.6472 
  2299.9342  2999.6573  2038.2597   2299.8400  2999.5395  2070.7414 
  2399.9123  2999.6573  2040.3539   2399.8180  2999.5395  2072.8357 
  2499.8903  2999.6573  2042.4482   2499.7961  2999.5395  2074.9299 
  2599.8684  2999.6573  2044.5424   2599.7742  2999.5395  2077.0241 
  2699.8465  2999.6573  2046.6366   2699.7522  2999.5395  2079.1184 
  2799.8245  2999.6573  2048.7309   2799.7303  2999.5395  2081.2126 
  2899.8026  2999.6573  2050.8251   2899.7084  2999.5395  2083.3069 
  2999.7807  2999.6573  2052.9194   2999.6864  2999.5395  2085.4011 
  3099.7588  2999.6573  2055.0136   3099.6645  2999.5395  2087.4953 
  3199.7368  2999.6573  2057.1079   3199.6426  2999.5395  2089.5896 
  2000.0000  3099.6231  2034.5946   1999.9058  3099.5053  2067.0764 
  2099.9781  3099.6231  2036.6889   2099.8838  3099.5053  2069.1706 
  2199.9561  3099.6231  2038.7831   2199.8619  3099.5053  2071.2649 
  2299.9342  3099.6231  2040.8774   2299.8400  3099.5053  2073.3591 
  2399.9123  3099.6231  2042.9716   2399.8180  3099.5053  2075.4533 
  2499.8903  3099.6231  2045.0659   2499.7961  3099.5053  2077.5476 
  2599.8684  3099.6231  2047.1601   2599.7742  3099.5053  2079.6418 
  2699.8465  3099.6231  2049.2543   2699.7522  3099.5053  2081.7361 
  2799.8245  3099.6231  2051.3486   2799.7303  3099.5053  2083.8303 
  2899.8026  3099.6231  2053.4428   2899.7084  3099.5053  2085.9246 
  2999.7807  3099.6231  2055.5371   2999.6864  3099.5053  2088.0188 
  3099.7588  3099.6231  2057.6313   3099.6645  3099.5053  2090.1130 
  3199.7368  3099.6231  2059.7255   3199.6426  3099.5053  2092.2073 
  2000.0000  3199.5888  2037.2123   1999.9058  3199.4710  2069.6941 
  2099.9781  3199.5888  2039.3066   2099.8838  3199.4710  2071.7883 
  2199.9561  3199.5888  2041.4008   2199.8619  3199.4710  2073.8826 
  2299.9342  3199.5888  2043.4951   2299.8400  3199.4710  2075.9768 
  2399.9123  3199.5888  2045.5893   2399.8180  3199.4710  2078.0710 
  2499.8903  3199.5888  2047.6835   2499.7961  3199.4710  2080.1653 
  2599.8684  3199.5888  2049.7778   2599.7742  3199.4710  2082.2595 
  2699.8465  3199.5888  2051.8720   2699.7522  3199.4710  2084.3538 
  2799.8245  3199.5888  2053.9663   2799.7303  3199.4710  2086.4480 
  2899.8026  3199.5888  2056.0605   2899.7084  3199.4710  2088.5423 
  2999.7807  3199.5888  2058.1548   2999.6864  3199.4710  2090.6365 
  3099.7588  3199.5888  2060.2490   3099.6645  3199.4710  2092.7307 
  3199.7368  3199.5888  2062.3432   3199.6426  3199.4710  2094.8250 
  2000.0000  3299.5545  2039.8300   1999.9058  3299.4367  2072.3118 
  2099.9781  3299.5545  2041.9243   2099.8838  3299.4367  2074.4060 
  2199.9561  3299.5545  2044.0185   2199.8619  3299.4367  2076.5003 
  2299.9342  3299.5545  2046.1128   2299.8400  3299.4367  2078.5945 
  2399.9123  3299.5545  2048.2070   2399.8180  3299.4367  2080.6887 
  2499.8903  3299.5545  2050.3012   2499.7961  3299.4367  2082.7830 
  2599.8684  3299.5545  2052.3955   2599.7742  3299.4367  2084.8772 
  2699.8465  3299.5545  2054.4897   2699.7522  3299.4367  2086.9715 
  2799.8245  3299.5545  2056.5840   2799.7303  3299.4367  2089.0657 
  2899.8026  3299.5545  2058.6782   2899.7084  3299.4367  2091.1599 
  2999.7807  3299.5545  2060.7725   2999.6864  3299.4367  2093.2542 
  3099.7588  3299.5545  2062.8667   3099.6645  3299.4367  2095.3484 
  3199.7368  3299.5545  2064.9609   3199.6426  3299.4367  2097.4427 
/ 

ZCORN
  2000.0000  2002.0942  2002.0942  2004.1885  2004.1885  2006.2827
  2006.2827  2008.3770  2008.3770  2010.4712  2010.4712  2012.5655
  2012.5655  2014.6597  2014.6597  2016.7539  2016.7539  2018.8482
  2018.8482  2020.9424  2020.9424  2023.0367  2023.0367  2025.1309
  2002.6177  2004.7119  2004.7119  2006.8062  2006.8062  2008.9004
  2008.9004  2010.9947  2010.9947  2013.0889  2013.0889  2015.1831
  2015.1831  2017.2774  2017.2774  2019.3716  2019.3716  2021.4659
  2021.4659  2023.5601  2023.5601  2025.6544  2025.6544  2027.7486
  2002.6177  2004.7119  2004.7119  2006.8062  2006.8062  2008.9004
  2008.9004  2010.9947  2010.9947  2013.0889  2013.0889  2015.1831
  2015.1831  2017.2774  2017.2774  2019.3716  2019.3716  2021.4659
  2021.4659  2023.5601  2023.5601  2025.6544  2025.6544  2027.7486
  2005.2354  2007.3296  2007.3296  2009.4239  2009.4239  2011.5181
  2011.5181  2013.6124  2013.6124  2015.7066  2015.7066  2017.8008
  2017.8008  2019.8951  2019.8951  2021.9893  2021.9893  2024.0836
  2024.0836  2026.1778  2026.1778  2028.2721  2028.2721  2030.3663
  2005.2354  2007.3296  2007.3296  2009.4239  2009.4239  2011.5181
  2011.5181  2013.6124  2013.6124  2015.7066  2015.7066  2017.8008
  2017.8008  2019.8951  2019.8951  2021.9893  2021.9893  2024.0836
  2024.0836  2026.1778  2026.1778  2028.2721  2028.2721  2030.3663
  2007.8531  2009.9473  2009.9473  2012.0416  2012.0416  2014.1358
  2014.1358  2016.2301  2016.2301  2018.3243  2018.3243  2020.4185
  2020.4185  2022.5128  2022.5128  2024.6070  2024.6070  2026.7013
  2026.7013  2028.7955  2028.7955  2030.8897  2030.8897  2032.9840
  2007.8531  2009.9473  2009.9473  2012.0416  2012.0416  2014.1358
  2014.1358  2016.2301  2016.2301  2018.3243  2018.3243  2020.4185
  2020.4185  2022.5128  2022.5128  2024.6070  2024.6070  2026.7013
  2026.7013  2028.7955  2028.7955  2030.8897  2030.8897  2032.9840
  2010.4708  2012.5650  2012.5650  2014.6593  2014.6593  2016.7535
  2016.7535  2018.8477  2018.8477  2020.9420  2020.9420  2023.0362
  2023.0362  2025.1305  2025.1305  2027.2247  2027.2247  2029.3190
  2029.3190  2031.4132  2031.4132  2033.5074  2033.5074  2035.6017
  2010.4708  2012.5650  2012.5650  2014.6593  2014.6593  2016.7535
  2016.7535  2018.8477  2018.8477  2020.9420  2020.9420  2023.0362
  2023.0362  2025.1305  2025.1305  2027.2247  2027.2247  2029.3190
  2029.3190  2031.4132  2031.4132  2033.5074  2033.5074  2035.6017
  2013.0885  2015.1827  2015.1827  2017.2770  2017.2770  2019.3712
  2019.3712  2021.4654  2021.4654  2023.5597  2023.5597  2025.6539
  2025.6539  2027.7482  2027.7482  2029.8424  2029.8424  2031.9367
  2031.9367  2034.0309  2034.0309  2036.1251  2036.1251  2038.2194
  2013.0885  2015.1827  2015.1827  2017.2770  2017.2770  2019.3712
  2019.3712  2021.4654  2021.4654  2023.5597  2023.5597  2025.6539
  2025.6539  2027.7482  2027.7482  2029.8424  2029.8424  2031.9367
  2031.9367  2034.0309  2034.0309  2036.1251  2036.1251  2038.2194
  2015.7062  2017.8004  2017.8004  2019.8947  2019.8947  2021.9889
  2021.9889  2024.0831  2024.0831  2026.1774  2026.1774  2028.2716
  2028.2716  2030.3659  2030.3659  2032.4601  2032.4601  2034.5543
  2034.5543  2036.6486  2036.6486  2038.7428  2038.7428  2040.8371
  2021.5062  2023.6004  2023.6004  2025.6947  2025.6947  2027.7889
  2027.7889  2029.8831  2029.8831  2031.9774  2031.9774  2034.0716
  2034.0716  2036.1659  2036.1659  2038.2601  2038.2601  2040.3543
  2040.3543  2042.4486  2042.4486  2044.5428  2044.5428  2046.6371
  2024.1239  2026.2181  2026.2181  2028.3123  2028.3123  2030.4066
  2030.4066  2032.5008  2032.5008  2034.5951  2034.5951  2036.6893
  2036.6893  2038.7836  2038.7836  2040.8778  2040.8778  2042.9720
  2042.9720  2045.0663  2045.0663  2047.1605  2047.1605  2049.2548
  2024.1239  2026.2181  2026.2181  2028.3123  2028.3123  2030.4066
  2030.4066  2032.5008  2032.5008  2034.5951  2034.5951  2036.6893
  2036.6893  2038.7836  2038.7836  2040.8778  2040.8778  2042.9720
  2042.9720  2045.0663  2045.0663  2047.1605  2047.1605  2049.2548
  2026.7416  2028.8358  2028.8358  2030.9300  2030.9300  2033.0243
  2033.0243  2035.1185  2035.1185  2037.2128  2037.2128  2039.3070
  2039.3070  2041.4013  2041.4013  2043.4955  2043.4955  2045.5897
  2045.5897  2047.6840  2047.6840  2049.7782  2049.7782  2051.8725
  2026.7416  2028.8358  2028.8358  2030.9300  2030.9300  2033.0243
  2033.0243  2035.1185  2035.1185  2037.2128  2037.2128  2039.3070
  2039.3070  2041.4013  2041.4013  2043.4955  2043.4955  2045.5897
  2045.5897  2047.6840  2047.6840  2049.7782  2049.7782  2051.8725
  2029.3593  2031.4535  2031.4535  2033.5477  2033.5477  2035.6420
  2035.6420  2037.7362  2037.7362  2039.8305  2039.8305  2041.9247
  2041.9247  2044.0189  2044.0189  2046.1132  2046.1132  2048.2074
  2048.2074  2050.3017  2050.3017  2052.3959  2052.3959  2054.4902
  2029.3593  2031.4535  2031.4535  2033.5477  2033.5477  2035.6420
  2035.6420  2037.7362  2037.7362  2039.8305  2039.8305  2041.9247
  2041.9247  2044.0189  2044.0189  2046.1132  2046.1132  2048.2074
  2048.2074  2050.3017  2050.3017  2052.3959  2052.3959  2054.4902
  2031.9769  2034.0712  2034.0712  2036.1654  2036.1654  2038.2597
  2038.2597  2040.3539  2040.3539  2042.4482  2042.4482  2044.5424
  2044.5424  2046.6366  2046.6366  2048.7309  2048.7309  2050.8251
  2050.8251  2052.9194  2052.9194  2055.0136  2055.0136  2057.1079
  2031.9769  2034.0712  2034.0712  2036.1654  2036.1654  2038.2597
  2038.2597  2040.3539  2040.3539  2042.4482  2042.4482  2044.5424
  2044.5424  2046.6366  2046.6366  2048.7309  2048.7309  2050.8251
  2050.8251  2052.9194  2052.9194  2055.0136  2055.0136  2057.1079
  2034.5946  2036.6889  2036.6889  2038.7831  2038.7831  2040.8774
  2040.8774  2042.9716  2042.9716  2045.0659  2045.0659  2047.1601
  2047.1601  2049.2543  2049.2543  2051.3486  2051.3486  2053.4428
  2053.4428  2055.5371  2055.5371  2057.6313  2057.6313  2059.7255
  2034.5946  2036.6889  2036.6889  2038.7831  2038.7831  2040.8774
  2040.8774  2042.9716  2042.9716  2045.0659  2045.0659  2047.1601
  2047.1601  2049.2543  2049.2543  2051.3486  2051.3486  2053.4428
  2053.4428  2055.5371  2055.5371  2057.6313  2057.6313  2059.7255
  2037.2123  2039.3066  2039.3066  2041.4008  2041.4008  2043.4951
  2043.4951  2045.5893  2045.5893  2047.6835  2047.6835  2049.7778
  2049.7778  2051.8720  2051.8720  2053.9663  2053.9663  2056.0605
  2056.0605  2058.1548  2058.1548  2060.2490  2060.2490  2062.3432
  2037.2123  2039.3066  2039.3066  2041.4008  2041.4008  2043.4951
  2043.4951  2045.5893  2045.5893  2047.6835  2047.6835  2049.7778
  2049.7778  2051.8720  2051.8720  2053.9663  2053.9663  2056.0605
  2056.0605  2058.1548  2058.1548  2060.2490  2060.2490  2062.3432
  2039.8300  2041.9243  2041.9243  2044.0185  2044.0185  2046.1128
  2046.1128  2048.2070  2048.2070  2050.3012  2050.3012  2052.3955
  2052.3955  2054.4897  2054.4897  2056.5840  2056.5840  2058.6782
  2058.6782  2060.7725  2060.7725  2062.8667  2062.8667  2064.9609
  2002.4986  2004.5928  2004.5928  2006.6871  2006.6871  2008.7813
  2008.7813  2010.8756  2010.8756  2012.9698  2012.9698  2015.0640
  2015.0640  2017.1583  2017.1583  2019.2525  2019.2525  2021.3468
  2021.3468  2023.4410  2023.4410  2025.5353  2025.5353  2027.6295
  2005.1163  2007.2105  2007.2105  2009.3048  2009.3048  2011.3990
  2011.3990  2013.4933  2013.4933  2015.5875  2015.5875  2017.6817
  2017.6817  2019.7760  2019.7760  2021.8702  2021.8702  2023.9645
  2023.9645  2026.0587  2026.0587  2028.1530  2028.1530  2030.2472
  2005.1163  2007.2105  2007.2105  2009.3048  2009.3048  2011.3990
  2011.3990  2013.4933  2013.4933  2015.5875  2015.5875  2017.6817
  2017.6817  2019.7760  2019.7760  2021.8702  2021.8702  2023.9645
  2023.9645  2026.0587  2026.0587  2028.1530  2028.1530  2030.2472
  2007.7340  2009.8282  2009.8282  2011.9225  2011.9225  2014.0167
  2014.0167  2016.1110  2016.1110  2018.2052  2018.2052  2020.2994
  2020.2994  2022.3937  2022.3937  2024.4879  2024.4879  2026.5822
  2026.5822  2028.6764  2028.6764  2030.7706  2030.7706  2032.8649
  2007.7340  2009.8282  2009.8282  2011.9225  2011.9225  2014.0167
  2014.0167  2016.1110  2016.1110  2018.2052  2018.2052  2020.2994
  2020.2994  2022.3937  2022.3937  2024.4879  2024.4879  2026.5822
  2026.5822  2028.6764  2028.6764  2030.7706  2030.7706  2032.8649
  2010.3517  2012.4459  2012.4459  2014.5402  2014.5402  2016.6344
  2016.6344  2018.7286  2018.7286  2020.8229  2020.8229  2022.9171
  2022.9171  2025.0114  2025.0114  2027.1056  2027.1056  2029.1999
  2029.1999  2031.2941  2031.2941  2033.3883  2033.3883  2035.4826
  2010.3517  2012.4459  2012.4459  2014.5402  2014.5402  2016.6344
  2016.6344  2018.7286  2018.7286  2020.8229  2020.8229  2022.9171
  2022.9171  2025.0114  2025.0114  2027.1056  2027.1056  2029.1999
  2029.1999  2031.2941  2031.2941  2033.3883  2033.3883  2035.4826
  2012.9694  2015.0636  2015.0636  2017.1579  2017.1579  2019.2521
  2019.2521  2021.3463  2021.3463  2023.4406  2023.4406  2025.5348
  2025.5348  2027.6291  2027.6291  2029.7233  2029.7233  2031.8176
  2031.8176  2033.9118  2033.9118  2036.0060  2036.0060  2038.1003
  2012.9694  2015.0636  2015.0636  2017.1579  2017.1579  2019.2521
  2019.2521  2021.3463  2021.3463  2023.4406  2023.4406  2025.5348
  2025.5348  2027.6291  2027.6291  2029.7233  2029.7233  2031.8176
  2031.8176  2033.9118  2033.9118  2036.0060  2036.0060  2038.1003
  2015.5871  2017.6813  2017.6813  2019.7756  2019.7756  2021.8698
  2021.8698  2023.9640  2023.9640  2026.0583  2026.0583  2028.1525
  2028.1525  2030.2468  2030.2468  2032.3410  2032.3410  2034.4352
  2034.4352  2036.5295  2036.5295  2038.6237  2038.6237  2040.7180
  2015.5871  2017.6813  2017.6813  2019.7756  2019.7756  2021.8698
  2021.8698  2023.9640  2023.9640  2026.0583  2026.0583  2028.1525
  2028.1525  2030.2468  2030.2468  2032.3410  2032.3410  2034.4352
  2034.4352  2036.5295  2036.5295  2038.6237  2038.6237  2040.7180
  2018.2048  2020.2990  2020.2990  2022.3932  2022.3932  2024.4875
  2024.4875  2026.5817  2026.5817  2028.6760  2028.6760  2030.7702
  2030.7702  2032.8645  2032.8645  2034.9587  2034.9587  2037.0529
  2037.0529  2039.1472  2039.1472  2041.2414  2041.2414  2043.3357
  2024.0048  2026.0990  2026.0990  2028.1932  2028.1932  2030.2875
  2030.2875  2032.3817  2032.3817  2034.4760  2034.4760  2036.5702
  2036.5702  2038.6645  2038.6645  2040.7587  2040.7587  2042.8529
  2042.8529  2044.9472  2044.9472  2047.0414  2047.0414  2049.1357
  2026.6225  2028.7167  2028.7167  2030.8109  2030.8109  2032.9052
  2032.9052  2034.9994  2034.9994  2037.0937  2037.0937  2039.1879
  2039.1879  2041.2822  2041.2822  2043.3764  2043.3764  2045.4706
  2045.4706  2047.5649  2047.5649  2049.6591  2049.6591  2051.7534
  2026.6225  2028.7167  2028.7167  2030.8109  2030.8109  2032.9052
  2032.9052  2034.9994  2034.9994  2037.0937  2037.0937  2039.1879
  2039.1879  2041.2822  2041.2822  2043.3764  2043.3764  2045.4706
  2045.4706  2047.5649  2047.5649  2049.6591  2049.6591  2051.7534
  2029.2402  2031.3344  2031.3344  2033.4286  2033.4286  2035.5229
  2035.5229  2037.6171  2037.6171  2039.7114  2039.7114  2041.8056
  2041.8056  2043.8998  2043.8998  2045.9941  2045.9941  2048.0883
  2048.0883  2050.1826  2050.1826  2052.2768  2052.2768  2054.3711
  2029.2402  2031.3344  2031.3344  2033.4286  2033.4286  2035.5229
  2035.5229  2037.6171  2037.6171  2039.7114  2039.7114  2041.8056
  2041.8056  2043.8998  2043.8998  2045.9941  2045.9941  2048.0883
  2048.0883  2050.1826  2050.1826  2052.2768  2052.2768  2054.3711
  2031.8578  2033.9521  2033.9521  2036.0463  2036.0463  2038.1406
  2038.1406  2040.2348  2040.2348  2042.3291  2042.3291  2044.4233
  2044.4233  2046.5175  2046.5175  2048.6118  2048.6118  2050.7060
  2050.7060  2052.8003  2052.8003  2054.8945  2054.8945  2056.9888
  2031.8578  2033.9521  2033.9521  2036.0463  2036.0463  2038.1406
  2038.1406  2040.2348  2040.2348  2042.3291  2042.3291  2044.4233
  2044.4233  2046.5175  2046.5175  2048.6118  2048.6118  2050.7060
  2050.7060  2052.8003  2052.8003  2054.8945  2054.8945  2056.9888
  2034.4755  2036.5698  2036.5698  2038.6640  2038.6640  2040.7583
  2040.7583  2042.8525  2042.8525  2044.9468  2044.9468  2047.0410
  2047.0410  2049.1352  2049.1352  2051.2295  2051.2295  2053.3237
  2053.3237  2055.4180  2055.4180  2057.5122  2057.5122  2059.6064
  2034.4755  2036.5698  2036.5698  2038.6640  2038.6640  2040.7583
  2040.7583  2042.8525  2042.8525  2044.9468  2044.9468  2047.0410
  2047.0410  2049.1352  2049.1352  2051.2295  2051.2295  2053.3237
  2053.3237  2055.4180  2055.4180  2057.5122  2057.5122  2059.6064
  2037.0932  2039.1875  2039.1875  2041.2817  2041.2817  2043.3760
  2043.3760  2045.4702  2045.4702  2047.5644  2047.5644  2049.6587
  2049.6587  2051.7529  2051.7529  2053.8472  2053.8472  2055.9414
  2055.9414  2058.0357  2058.0357  2060.1299  2060.1299  2062.2241
  2037.0932  2039.1875  2039.1875  2041.2817  2041.2817  2043.3760
  2043.3760  2045.4702  2045.4702  2047.5644  2047.5644  2049.6587
  2049.6587  2051.7529  2051.7529  2053.8472  2053.8472  2055.9414
  2055.9414  2058.0357  2058.0357  2060.1299  2060.1299  2062.2241
  2039.7109  2041.8052  2041.8052  2043.8994  2043.8994  2045.9937
  2045.9937  2048.0879  2048.0879  2050.1821  2050.1821  2052.2764
  2052.2764  2054.3706  2054.3706  2056.4649  2056.4649  2058.5591
  2058.5591  2060.6534  2060.6534  2062.7476  2062.7476  2064.8418
  2039.7109  2041.8052  2041.8052  2043.8994  2043.8994  2045.9937
  2045.9937  2048.0879  2048.0879  2050.1821  2050.1821  2052.2764
  2052.2764  2054.3706  2054.3706  2056.4649  2056.4649  2058.5591
  2058.5591  2060.6534  2060.6534  2062.7476  2062.7476  2064.8418
  2042.3286  2044.4229  2044.4229  2046.5171  2046.5171  2048.6114
  2048.6114  2050.7056  2050.7056  2052.7998  2052.7998  2054.8941
  2054.8941  2056.9883  2056.9883  2059.0826  2059.0826  2061.1768
  2061.1768  2063.2710  2063.2710  2065.3653  2065.3653  2067.4595
  2002.4986  2004.5928  2004.5928  2006.6871  2006.6871  2008.7813
  2008.7813  2010.8756  2010.8756  2012.9698  2012.9698  2015.0640
  2015.0640  2017.1583  2017.1583  2019.2525  2019.2525  2021.3468
  2021.3468  2023.4410  2023.4410  2025.5353  2025.5353  2027.6295
  2005.1163  2007.2105  2007.2105  2009.3048  2009.3048  2011.3990
  2011.3990  2013.4933  2013.4933  2015.5875  2015.5875  2017.6817
  2017.6817  2019.7760  2019.7760  2021.8702  2021.8702  2023.9645
  2023.9645  2026.0587  2026.0587  2028.1530  2028.1530  2030.2472
  2005.1163  2007.2105  2007.2105  2009.3048  2009.3048  2011.3990
  2011.3990  2013.4933  2013.4933  2015.5875  2015.5875  2017.6817
  2017.6817  2019.7760  2019.7760  2021.8702  2021.8702  2023.9645
  2023.9645  2026.0587  2026.0587  2028.1530  2028.1530  2030.2472
  2007.7340  2009.8282  2009.8282  2011.9225  2011.9225  2014.0167
  2014.0167  2016.1110  2016.1110  2018.2052  2018.2052  2020.2994
  2020.2994  2022.3937  2022.3937  2024.4879  2024.4879  2026.5822
  2026.5822  2028.6764  2028.6764  2030.7706  2030.7706  2032.8649
  2007.7340  2009.8282  2009.8282  2011.9225  2011.9225  2014.0167
  2014.0167  2016.1110  2016.1110  2018.2052  2018.2052  2020.2994
  2020.2994  2022.3937  2022.3937  2024.4879  2024.4879  2026.5822
  2026.5822  2028.6764  2028.6764  2030.7706  2030.7706  2032.8649
  2010.3517  2012.4459  2012.4459  2014.5402  2014.5402  2016.6344
  2016.6344  2018.7286  2018.7286  2020.8229  2020.8229  2022.9171
  2022.9171  2025.0114  2025.0114  2027.1056  2027.1056  2029.1999
  2029.1999  2031.2941  2031.2941  2033.3883  2033.3883  2035.4826
  2010.3517  2012.4459  2012.4459  2014.5402  2014.5402  2016.6344
  2016.6344  2018.7286  2018.7286  2020.8229  2020.8229  2022.9171
  2022.9171  2025.0114  2025.0114  2027.1056  2027.1056  2029.1999
  2029.1999  2031.2941  2031.2941  2033.3883  2033.3883  2035.4826
  2012.9694  2015.0636  2015.0636  2017.1579  2017.1579  2019.2521
  2019.2521  2021.3463  2021.3463  2023.4406  2023.4406  2025.5348
  2025.5348  2027.6291  2027.6291  2029.7233  2029.7233  2031.8176
  2031.8176  2033.9118  2033.9118  2036.0060  2036.0060  2038.1003
  2012.9694  2015.0636  2015.0636  2017.1579  2017.1579  2019.2521
  2019.2521  2021.3463  2021.3463  2023.4406  2023.4406  2025.5348
  2025.5348  2027.6291  2027.6291  2029.7233  2029.7233  2031.8176
  2031.8176  2033.9118  2033.9118  2036.0060  2036.0060  2038.1003
  2015.5871  2017.6813  2017.6813  2019.7756  2019.7756  2021.8698
  2021.8698  2023.9640  2023.9640  2026.0583  2026.0583  2028.1525
  2028.1525  2030.2468  2030.2468  2032.3410  2032.3410  2034.4352
  2034.4352  2036.5295  2036.5295  2038.6237  2038.6237  2040.7180
  2015.5871  2017.6813  2017.6813  2019.7756  2019.7756  2021.8698
  2021.8698  2023.9640  2023.9640  2026.0583  2026.0583  2028.1525
  2028.1525  2030.2468  2030.2468  2032.3410  2032.3410  2034.4352
  2034.4352  2036.5295  2036.5295  2038.6237  2038.6237  2040.7180
  2018.2048  2020.2990  2020.2990  2022.3932  2022.3932  2024.4875
  2024.4875  2026.5817  2026.5817  2028.6760  2028.6760  2030.7702