-- This reservoir simulation deck is made available under the Open Database
-- License: http://opendatacommons.org/licenses/odbl/1.0/. Any rights in
-- individual contents of the database are licensed under the Database Contents
-- License: http://opendatacommons.org/licenses/dbcl/1.0/

-- Copyright (C) 2020 Equinor


SPECGRID
 15 10 7 1 F / 

COORD
  2000.0000  2000.0000  2000.0000   1999.8255  2000.0000  2034.9787 
  2099.9391  2000.0000  2003.4899   2099.7646  2000.0000  2038.4686 
  2199.8782  2000.0000  2006.9799   2199.7037  2000.0000  2041.9586 
  2299.8172  2000.0000  2010.4698   2299.6428  2000.0000  2045.4485 
  2399.7563  2000.0000  2013.9598   2399.5818  2000.0000  2048.9385 
  2499.6954  2000.0000  2017.4497   2499.5209  2000.0000  2052.4284 
  2599.6345  2000.0000  2020.9397   2599.4600  2000.0000  2055.9184 
  2699.5736  2000.0000  2024.4296   2699.3991  2000.0000  2059.4083 
  2799.5127  2000.0000  2027.9196   2799.3382  2000.0000  2062.8983 
  2899.4517  2000.0000  2031.4095   2899.2772  2000.0000  2066.3882 
  2999.3908  2000.0000  2034.8995   2999.2163  2000.0000  2069.8782 
  3099.3299  2000.0000  2038.3894   3099.1554  2000.0000  2073.3681 
  3199.2690  2000.0000  2041.8794   3199.0945  2000.0000  2076.8581 
  3299.2081  2000.0000  2045.3693   3299.0336  2000.0000  2080.3480 
  3399.1472  2000.0000  2048.8593   3398.9727  2000.0000  2083.8380 
  3499.0862  2000.0000  2052.3492   3498.9117  2000.0000  2087.3279 
  2000.0000  2100.0000  2000.0000   1999.8255  2100.0000  2034.9787 
  2099.9391  2100.0000  2003.4899   2099.7646  2100.0000  2038.4686 
  2199.8782  2100.0000  2006.9799   2199.7037  2100.0000  2041.9586 
  2299.8172  2100.0000  2010.4698   2299.6428  2100.0000  2045.4485 
  2399.7563  2100.0000  2013.9598   2399.5818  2100.0000  2048.9385 
  2499.6954  2100.0000  2017.4497   2499.5209  2100.0000  2052.4284 
  2599.6345  2100.0000  2020.9397   2599.4600  2100.0000  2055.9184 
  2699.5736  2100.0000  2024.4296   2699.3991  2100.0000  2059.4083 
  2799.5127  2100.0000  2027.9196   2799.3382  2100.0000  2062.8983 
  2899.4517  2100.0000  2031.4095   2899.2772  2100.0000  2066.3882 
  2999.3908  2100.0000  2034.8995   2999.2163  2100.0000  2069.8782 
  3099.3299  2100.0000  2038.3894   3099.1554  2100.0000  2073.3681 
  3199.2690  2100.0000  2041.8794   3199.0945  2100.0000  2076.8581 
  3299.2081  2100.0000  2045.3693   3299.0336  2100.0000  2080.3480 
  3399.1472  2100.0000  2048.8593   3398.9727  2100.0000  2083.8380 
  3499.0862  2100.0000  2052.3492   3498.9117  2100.0000  2087.3279 
  2000.0000  2200.0000  2000.0000   1999.8255  2200.0000  2034.9787 
  2099.9391  2200.0000  2003.4899   2099.7646  2200.0000  2038.4686 
  2199.8782  2200.0000  2006.9799   2199.7037  2200.0000  2041.9586 
  2299.8172  2200.0000  2010.4698   2299.6428  2200.0000  2045.4485 
  2399.7563  2200.0000  2013.9598   2399.5818  2200.0000  2048.9385 
  2499.6954  2200.0000  2017.4497   2499.5209  2200.0000  2052.4284 
  2599.6345  2200.0000  2020.9397   2599.4600  2200.0000  2055.9184 
  2699.5736  2200.0000  2024.4296   2699.3991  2200.0000  2059.4083 
  2799.5127  2200.0000  2027.9196   2799.3382  2200.0000  2062.8983 
  2899.4517  2200.0000  2031.4095   2899.2772  2200.0000  2066.3882 
  2999.3908  2200.0000  2034.8995   2999.2163  2200.0000  2069.8782 
  3099.3299  2200.0000  2038.3894   3099.1554  2200.0000  2073.3681 
  3199.2690  2200.0000  2041.8794   3199.0945  2200.0000  2076.8581 
  3299.2081  2200.0000  2045.3693   3299.0336  2200.0000  2080.3480 
  3399.1472  2200.0000  2048.8593   3398.9727  2200.0000  2083.8380 
  3499.0862  2200.0000  2052.3492   3498.9117  2200.0000  2087.3279 
  2000.0000  2300.0000  2000.0000   1999.8255  2300.0000  2034.9787 
  2099.9391  2300.0000  2003.4899   2099.7646  2300.0000  2038.4686 
  2199.8782  2300.0000  2006.9799   2199.7037  2300.0000  2041.9586 
  2299.8172  2300.0000  2010.4698   2299.6428  2300.0000  2045.4485 
  2399.7563  2300.0000  2013.9598   2399.5818  2300.0000  2048.9385 
  2499.6954  2300.0000  2017.4497   2499.5209  2300.0000  2052.4284 
  2599.6345  2300.0000  2020.9397   2599.4600  2300.0000  2055.9184 
  2699.5736  2300.0000  2024.4296   2699.3991  2300.0000  2059.4083 
  2799.5127  2300.0000  2027.9196   2799.3382  2300.0000  2062.8983 
  2899.4517  2300.0000  2031.4095   2899.2772  2300.0000  2066.3882 
  2999.3908  2300.0000  2034.8995   2999.2163  2300.0000  2069.8782 
  3099.3299  2300.0000  2038.3894   3099.1554  2300.0000  2073.3681 
  3199.2690  2300.0000  2041.8794   3199.0945  2300.0000  2076.8581 
  3299.2081  2300.0000  2045.3693   3299.0336  2300.0000  2080.3480 
  3399.1472  2300.0000  2048.8593   3398.9727  2300.0000  2083.8380 
  3499.0862  2300.0000  2052.3492   3498.9117  2300.0000  2087.3279 
  2000.0000  2400.0000  2000.0000   1999.8255  2400.0000  2034.9787 
  2099.9391  2400.0000  2003.4899   2099.7646  2400.0000  2038.4686 
  2199.8782  2400.0000  2006.9799   2199.7037  2400.0000  2041.9586 
  2299.8172  2400.0000  2010.4698   2299.6428  2400.0000  2045.4485 
  2399.7563  2400.0000  2013.9598   2399.5818  2400.0000  2048.9385 
  2499.6954  2400.0000  2017.4497   2499.5209  2400.0000  2052.4284 
  2599.6345  2400.0000  2020.9397   2599.4600  2400.0000  2055.9184 
  2699.5736  2400.0000  2024.4296   2699.3991  2400.0000  2059.4083 
  2799.5127  2400.0000  2027.9196   2799.3382  2400.0000  2062.8983 
  2899.4517  2400.0000  2031.4095   2899.2772  2400.0000  2066.3882 
  2999.3908  2400.0000  2034.8995   2999.2163  2400.0000  2069.8782 
  3099.3299  2400.0000  2038.3894   3099.1554  2400.0000  2073.3681 
  3199.2690  2400.0000  2041.8794   3199.0945  2400.0000  2076.8581 
  3299.2081  2400.0000  2045.3693   3299.0336  2400.0000  2080.3480 
  3399.1472  2400.0000  2048.8593   3398.9727  2400.0000  2083.8380 
  3499.0862  2400.0000  2052.3492   3498.9117  2400.0000  2087.3279 
  2000.0000  2500.0000  2000.0000   1999.8255  2500.0000  2034.9787 
  2099.9391  2500.0000  2003.4899   2099.7646  2500.0000  2038.4686 
  2199.8782  2500.0000  2006.9799   2199.7037  2500.0000  2041.9586 
  2299.8172  2500.0000  2010.4698   2299.6428  2500.0000  2045.4485 
  2399.7563  2500.0000  2013.9598   2399.5818  2500.0000  2048.9385 
  2499.6954  2500.0000  2017.4497   2499.5209  2500.0000  2052.4284 
  2599.6345  2500.0000  2020.9397   2599.4600  2500.0000  2055.9184 
  2699.5736  2500.0000  2024.4296   2699.3991  2500.0000  2059.4083 
  2799.5127  2500.0000  2027.9196   2799.3382  2500.0000  2062.8983 
  2899.4517  2500.0000  2031.4095   2899.2772  2500.0000  2066.3882 
  2999.3908  2500.0000  2034.8995   2999.2163  2500.0000  2069.8782 
  3099.3299  2500.0000  2038.3894   3099.1554  2500.0000  2073.3681 
  3199.2690  2500.0000  2041.8794   3199.0945  2500.0000  2076.8581 
  3299.2081  2500.0000  2045.3693   3299.0336  2500.0000  2080.3480 
  3399.1472  2500.0000  2048.8593   3398.9727  2500.0000  2083.8380 
  3499.0862  2500.0000  2052.3492   3498.9117  2500.0000  2087.3279 
  2000.0000  2600.0000  2000.0000   1999.8255  2600.0000  2034.9787 
  2099.9391  2600.0000  2003.4899   2099.7646  2600.0000  2038.4686 
  2199.8782  2600.0000  2006.9799   2199.7037  2600.0000  2041.9586 
  2299.8172  2600.0000  2010.4698   2299.6428  2600.0000  2045.4485 
  2399.7563  2600.0000  2013.9598   2399.5818  2600.0000  2048.9385 
  2499.6954  2600.0000  2017.4497   2499.5209  2600.0000  2052.4284 
  2599.6345  2600.0000  2020.9397   2599.4600  2600.0000  2055.9184 
  2699.5736  2600.0000  2024.4296   2699.3991  2600.0000  2059.4083 
  2799.5127  2600.0000  2027.9196   2799.3382  2600.0000  2062.8983 
  2899.4517  2600.0000  2031.4095   2899.2772  2600.0000  2066.3882 
  2999.3908  2600.0000  2034.8995   2999.2163  2600.0000  2069.8782 
  3099.3299  2600.0000  2038.3894   3099.1554  2600.0000  2073.3681 
  3199.2690  2600.0000  2041.8794   3199.0945  2600.0000  2076.8581 
  3299.2081  2600.0000  2045.3693   3299.0336  2600.0000  2080.3480 
  3399.1472  2600.0000  2048.8593   3398.9727  2600.0000  2083.8380 
  3499.0862  2600.0000  2052.3492   3498.9117  2600.0000  2087.3279 
  2000.0000  2700.0000  2000.0000   1999.8255  2700.0000  2034.9787 
  2099.9391  2700.0000  2003.4899   2099.7646  2700.0000  2038.4686 
  2199.8782  2700.0000  2006.9799   2199.7037  2700.0000  2041.9586 
  2299.8172  2700.0000  2010.4698   2299.6428  2700.0000  2045.4485 
  2399.7563  2700.0000  2013.9598   2399.5818  2700.0000  2048.9385 
  2499.6954  2700.0000  2017.4497   2499.5209  2700.0000  2052.4284 
  2599.6345  2700.0000  2020.9397   2599.4600  2700.0000  2055.9184 
  2699.5736  2700.0000  2024.4296   2699.3991  2700.0000  2059.4083 
  2799.5127  2700.0000  2027.9196   2799.3382  2700.0000  2062.8983 
  2899.4517  2700.0000  2031.4095   2899.2772  2700.0000  2066.3882 
  2999.3908  2700.0000  2034.8995   2999.2163  2700.0000  2069.8782 
  3099.3299  2700.0000  2038.3894   3099.1554  2700.0000  2073.3681 
  3199.2690  2700.0000  2041.8794   3199.0945  2700.0000  2076.8581 
  3299.2081  2700.0000  2045.3693   3299.0336  2700.0000  2080.3480 
  3399.1472  2700.0000  2048.8593   3398.9727  2700.0000  2083.8380 
  3499.0862  2700.0000  2052.3492   3498.9117  2700.0000  2087.3279 
  2000.0000  2800.0000  2000.0000   1999.8255  2800.0000  2034.9787 
  2099.9391  2800.0000  2003.4899   2099.7646  2800.0000  2038.4686 
  2199.8782  2800.0000  2006.9799   2199.7037  2800.0000  2041.9586 
  2299.8172  2800.0000  2010.4698   2299.6428  2800.0000  2045.4485 
  2399.7563  2800.0000  2013.9598   2399.5818  2800.0000  2048.9385 
  2499.6954  2800.0000  2017.4497   2499.5209  2800.0000  2052.4284 
  2599.6345  2800.0000  2020.9397   2599.4600  2800.0000  2055.9184 
  2699.5736  2800.0000  2024.4296   2699.3991  2800.0000  2059.4083 
  2799.5127  2800.0000  2027.9196   2799.3382  2800.0000  2062.8983 
  2899.4517  2800.0000  2031.4095   2899.2772  2800.0000  2066.3882 
  2999.3908  2800.0000  2034.8995   2999.2163  2800.0000  2069.8782 
  3099.3299  2800.0000  2038.3894   3099.1554  2800.0000  2073.3681 
  3199.2690  2800.0000  2041.8794   3199.0945  2800.0000  2076.8581 
  3299.2081  2800.0000  2045.3693   3299.0336  2800.0000  2080.3480 
  3399.1472  2800.0000  2048.8593   3398.9727  2800.0000  2083.8380 
  3499.0862  2800.0000  2052.3492   3498.9117  2800.0000  2087.3279 
  2000.0000  2900.0000  2000.0000   1999.8255  2900.0000  2034.9787 
  2099.9391  2900.0000  2003.4899   2099.7646  2900.0000  2038.4686 
  2199.8782  2900.0000  2006.9799   2199.7037  2900.0000  2041.9586 
  2299.8172  2900.0000  2010.4698   2299.6428  2900.0000  2045.4485 
  2399.7563  2900.0000  2013.9598   2399.5818  2900.0000  2048.9385 
  2499.6954  2900.0000  2017.4497   2499.5209  2900.0000  2052.4284 
  2599.6345  2900.0000  2020.9397   2599.4600  2900.0000  2055.9184 
  2699.5736  2900.0000  2024.4296   2699.3991  2900.0000  2059.4083 
  2799.5127  2900.0000  2027.9196   2799.3382  2900.0000  2062.8983 
  2899.4517  2900.0000  2031.4095   2899.2772  2900.0000  2066.3882 
  2999.3908  2900.0000  2034.8995   2999.2163  2900.0000  2069.8782 
  3099.3299  2900.0000  2038.3894   3099.1554  2900.0000  2073.3681 
  3199.2690  2900.0000  2041.8794   3199.0945  2900.0000  2076.8581 
  3299.2081  2900.0000  2045.3693   3299.0336  2900.0000  2080.3480 
  3399.1472  2900.0000  2048.8593   3398.9727  2900.0000  2083.8380 
  3499.0862  2900.0000  2052.3492   3498.9117  2900.0000  2087.3279 
  2000.0000  3000.0000  2000.0000   1999.8255  3000.0000  2034.9787 
  2099.9391  3000.0000  2003.4899   2099.7646  3000.0000  2038.4686 
  2199.8782  3000.0000  2006.9799   2199.7037  3000.0000  2041.9586 
  2299.8172  3000.0000  2010.4698   2299.6428  3000.0000  2045.4485 
  2399.7563  3000.0000  2013.9598   2399.5818  3000.0000  2048.9385 
  2499.6954  3000.0000  2017.4497   2499.5209  3000.0000  2052.4284 
  2599.6345  3000.0000  2020.9397   2599.4600  3000.0000  2055.9184 
  2699.5736  3000.0000  2024.4296   2699.3991  3000.0000  2059.4083 
  2799.5127  3000.0000  2027.9196   2799.3382  3000.0000  2062.8983 
  2899.4517  3000.0000  2031.4095   2899.2772  3000.0000  2066.3882 
  2999.3908  3000.0000  2034.8995   2999.2163  3000.0000  2069.8782 
  3099.3299  3000.0000  2038.3894   3099.1554  3000.0000  2073.3681 
  3199.2690  3000.0000  2041.8794   3199.0945  3000.0000  2076.8581 
  3299.2081  3000.0000  2045.3693   3299.0336  3000.0000  2080.3480 
  3399.1472  3000.0000  2048.8593   3398.9727  3000.0000  2083.8380 
  3499.0862  3000.0000  2052.3492   3498.9117  3000.0000  2087.3279 
/ 

ZCORN
  2000.0000  2003.4899  2003.4899  2006.9799  2006.9799  2010.4698
  2010.4698  2013.9598  2013.9598  2017.4497  2017.4497  2020.9397
  2020.9397  2024.4296  2024.4296  2027.9196  2027.9196  2031.4095
  2031.4095  2034.8995  2034.8995  2038.3894  2038.3894  2041.8794
  2041.8794  2045.3693  2045.3693  2048.8593  2048.8593  2052.3492
  2000.0000  2003.4899  2003.4899  2006.9799  2006.9799  2010.4698
  2010.4698  2013.9598  2013.9598  2017.4497  2017.4497  2020.9397
  2020.9397  2024.4296  2024.4296  2027.9196  2027.9196  2031.4095
  2031.4095  2034.8995  2034.8995  2038.3894  2038.3894  2041.8794
  2041.8794  2045.3693  2045.3693  2048.8593  2048.8593  2052.3492
  2000.0000  2003.4899  2003.4899  2006.9799  2006.9799  2010.4698
  2010.4698  2013.9598  2013.9598  2017.4497  2017.4497  2020.9397
  2020.9397  2024.4296  2024.4296  2027.9196  2027.9196  2031.4095
  2031.4095  2034.8995  2034.8995  2038.3894  2038.3894  2041.8794
  2041.8794  2045.3693  2045.3693  2048.8593  2048.8593  2052.3492
  2000.0000  2003.4899  2003.4899  2006.9799  2006.9799  2010.4698
  2010.4698  2013.9598  2013.9598  2017.4497  2017.4497  2020.9397
  2020.9397  2024.4296  2024.4296  2027.9196  2027.9196  2031.4095
  2031.4095  2034.8995  2034.8995  2038.3894  2038.3894  2041.8794
  2041.8794  2045.3693  2045.3693  2048.8593  2048.8593  2052.3492
  2000.0000  2003.4899  2003.4899  2006.9799  2006.9799  2010.4698
  2010.4698  2013.9598  2013.9598  2017.4497  2017.4497  2020.9397
  2020.9397  2024.4296  2024.4296  2027.9196  2027.9196  2031.4095
  2031.4095  2034.8995  2034.8995  2038.3894  2038.3894  2041.8794
  2041.8794  2045.3693  2045.3693  2048.8593  2048.8593  2052.3492
  2000.0000  2003.4899  2003.4899  2006.9799  2006.9799  2010.4698
  2010.4698  2013.9598  2013.9598  2017.4497  2017.4497  2020.9397
  2020.9397  2024.4296  2024.4296  2027.9196  2027.9196  2031.4095
  2031.4095  2034.8995  2034.8995  2038.3894  2038.3894  2041.8794
  2041.8794  2045.3693  2045.3693  2048.8593  2048.8593  2052.3492
  2000.0000  2003.4899  2003.4899  2006.9799  2006.9799  2010.4698
  2010.4698  2013.9598  2013.9598  2017.4497  2017.4497  2020.9397
  2020.9397  2024.4296  2024.4296  2027.9196  2027.9196  2031.4095
  2031.4095  2034.8995  2034.8995  2038.3894  2038.3894  2041.8794
  2041.8794  2045.3693  2045.3693  2048.8593  2048.8593  2052.3492
  2000.0000  2003.4899  2003.4899  2006.9799  2006.9799  2010.4698
  2010.4698  2013.9598  2013.9598  2017.4497  2017.4497  2020.9397
  2020.9397  2024.4296  2024.4296  2027.9196  2027.9196  2031.4095
  2031.4095  2034.8995  2034.8995  2038.3894  2038.3894  2041.8794
  2041.8794  2045.3693  2045.3693  2048.8593  2048.8593  2052.3492
  2000.0000  2003.4899  2003.4899  2006.9799  2006.9799  2010.4698
  2010.4698  2013.9598  2013.9598  2017.4497  2017.4497  2020.9397
  2020.9397  2024.4296  2024.4296  2027.9196  2027.9196  2031.4095
  2031.4095  2034.8995  2034.8995  2038.3894  2038.3894  2041.8794
  2041.8794  2045.3693  2045.3693  2048.8593  2048.8593  2052.3492
  2000.0000  2003.4899  2003.4899  2006.9799  2006.9799  2010.4698
  2010.4698  2013.9598  2013.9598  2017.4497  2017.4497  2020.9397
  2020.9397  2024.4296  2024.4296  2027.9196  2027.9196  2031.4095
  2031.4095  2034.8995  2034.8995  2038.3894  2038.3894  2041.8794
  2041.8794  2045.3693  2045.3693  2048.8593  2048.8593  2052.3492
  2000.0000  2003.4899  2003.4899  2006.9799  2006.9799  2010.4698
  2010.4698  2013.9598  2013.9598  2017.4497  2017.4497  2020.9397
  2020.9397  2024.4296  2024.4296  2027.9196  2027.9196  2031.4095
  2031.4095  2034.8995  2034.8995  2038.3894  2038.3894  2041.8794
  2041.8794  2045.3693  2045.3693  2048.8593  2048.8593  2052.3492
  2000.0000  2003.4899  2003.4899  2006.9799  2006.9799  2010.4698
  2010.4698  2013.9598  2013.9598  2017.4497  2017.4497  2020.9397
  2020.9397  2024.4296  2024.4296  2027.9196  2027.9196  2031.4095
  2031.4095  2034.8995  2034.8995  2038.3894  2038.3894  2041.8794
  2041.8794  2045.3693  2045.3693  2048.8593  2048.8593  2052.3492
  2000.0000  2003.4899  2003.4899  2006.9799  2006.9799  2010.4698
  2010.4698  2013.9598  2013.9598  2017.4497  2017.4497  2020.9397
  2020.9397  2024.4296  2024.4296  2027.9196  2027.9196  2031.4095
  2031.4095  2034.8995  2034.8995  2038.3894  2038.3894  2041.8794
  2041.8794  2045.3693  2045.3693  2048.8593  2048.8593  2052.3492
  2000.0000  2003.4899  2003.4899  2006.9799  2006.9799  2010.4698
  2010.4698  2013.9598  2013.9598  2017.4497  2017.4497  2020.9397
  2020.9397  2024.4296  2024.4296  2027.9196  2027.9196  2031.4095
  2031.4095  2034.8995  2034.8995  2038.3894  2038.3894  2041.8794
  2041.8794  2045.3693  2045.3693  2048.8593  2048.8593  2052.3492
  2000.0000  2003.4899  2003.4899  2006.9799  2006.9799  2010.4698
  2010.4698  2013.9598  2013.9598  2017.4497  2017.4497  2020.9397
  2020.9397  2024.4296  2024.4296  2027.9196  2027.9196  2031.4095
  2031.4095  2034.8995  2034.8995  2038.3894  2038.3894  2041.8794
  2041.8794  2045.3693  2045.3693  2048.8593  2048.8593  2052.3492
  2000.0000  2003.4899  2003.4899  2006.9799  2006.9799  2010.4698
  2010.4698  2013.9598  2013.9598  2017.4497  2017.4497  2020.9397
  2020.9397  2024.4296  2024.4296  2027.9196  2027.9196  2031.4095
  2031.4095  2034.8995  2034.8995  2038.3894  2038.3894  2041.8794
  2041.8794  2045.3693  2045.3693  2048.8593  2048.8593  2052.3492
  2000.0000  2003.4899  2003.4899  2006.9799  2006.9799  2010.4698
  2010.4698  2013.9598  2013.9598  2017.4497  2017.4497  2020.9397
  2020.9397  2024.4296  2024.4296  2027.9196  2027.9196  2031.4095
  2031.4095  2034.8995  2034.8995  2038.3894  2038.3894  2041.8794
  2041.8794  2045.3693  2045.3693  2048.8593  2048.8593  2052.3492
  2000.0000  2003.4899  2003.4899  2006.9799  2006.9799  2010.4698
  2010.4698  2013.9598  2013.9598  2017.4497  2017.4497  2020.9397
  2020.9397  2024.4296  2024.4296  2027.9196  2027.9196  2031.4095
  2031.4095  2034.8995  2034.8995  2038.3894  2038.3894  2041.8794
  2041.8794  2045.3693  2045.3693  2048.8593  2048.8593  2052.3492
  2000.0000  2003.4899  2003.4899  2006.9799  2006.9799  2010.4698
  2010.4698  2013.9598  2013.9598  2017.4497  2017.4497  2020.9397
  2020.9397  2024.4296  2024.4296  2027.9196  2027.9196  2031.4095
  2031.4095  2034.8995  2034.8995  2038.3894  2038.3894  2041.8794
  2041.8794  2045.3693  2045.3693  2048.8593  2048.8593  2052.3492
  2000.0000  2003.4899  2003.4899  2006.9799  2006.9799  2010.4698
  2010.4698  2013.9598  2013.9598  2017.4497  2017.4497  2020.9397
  2020.9397  2024.4296  2024.4296  2027.9196  2027.9196  2031.4095
  2031.4095  2034.8995  2034.8995  2038.3894  2038.3894  2041.8794
  2041.8794  2045.3693  2045.3693  2048.8593  2048.8593  2052.3492
  2004.9970  2008.4869  2008.4869  2011.9769  2011.9769  2015.4668
  2015.4668  2018.9568  2018.9568  2022.4467  2022.4467  2025.9367
  2025.9367  2029.4266  2029.4266  2032.9166  2032.9166  2036.4065
  2036.4065  2039.8965  2039.8965  2043.3864  2043.3864  2046.8764
  2046.8764  2050.3663  2050.3663  2053.8562  2053.8562  2057.3462
  2004.9970  2008.4869  2008.4869  2011.9769  2011.9769  2015.4668
  2015.4668  2018.9568  2018.9568  2022.4467  2022.4467  2025.9367
  2025.9367  2029.4266  2029.4266  2032.9166  2032.9166  2036.4065
  2036.4065  2039.8965  2039.8965  2043.3864  2043.3864  2046.8764
  2046.8764  2050.3663  2050.3663  2053.8562  2053.8562  2057.3462
  2004.9970  2008.4869  2008.4869  2011.9769  2011.9769  2015.4668
  2015.4668  2018.9568  2018.9568  2022.4467  2022.4467  2025.9367
  2025.9367  2029.4266  2029.4266  2032.9166  2032.9166  2036.4065
  2036.4065  2039.8965  2039.8965  2043.3864  2043.3864  2046.8764
  2046.8764  2050.3663  2050.3663  2053.8562  2053.8562  2057.3462
  2004.9970  2008.4869  2008.4869  2011.9769  2011.9769  2015.4668
  2015.4668  2018.9568  2018.9568  2022.4467  2022.4467  2025.9367
  2025.9367  2029.4266  2029.4266  2032.9166  2032.9166  2036.4065
  2036.4065  2039.8965  2039.8965  2043.3864  2043.3864  2046.8764
  2046.8764  2050.3663  2050.3663  2053.8562  2053.8562  2057.3462
  2004.9970  2008.4869  2008.4869  2011.9769  2011.9769  2015.4668
  2015.4668  2018.9568  2018.9568  2022.4467  2022.4467  2025.9367
  2025.9367  2029.4266  2029.4266  2032.9166  2032.9166  2036.4065
  2036.4065  2039.8965  2039.8965  2043.3864  2043.3864  2046.8764
  2046.8764  2050.3663  2050.3663  2053.8562  2053.8562  2057.3462
  2004.9970  2008.4869  2008.4869  2011.9769  2011.9769  2015.4668
  2015.4668  2018.9568  2018.9568  2022.4467  2022.4467  2025.9367
  2025.9367  2029.4266  2029.4266  2032.9166  2032.9166  2036.4065
  2036.4065  2039.8965  2039.8965  2043.3864  2043.3864  2046.8764
  2046.8764  2050.3663  2050.3663  2053.8562  2053.8562  2057.3462
  2004.9970  2008.4869  2008.4869  2011.9769  2011.9769  2015.4668
  2015.4668  2018.9568  2018.9568  2022.4467  2022.4467  2025.9367
  2025.9367  2029.4266  2029.4266  2032.9166  2032.9166  2036.4065
  2036.4065  2039.8965  2039.8965  2043.3864  2043.3864  2046.8764
  2046.8764  2050.3663  2050.3663  2053.8562  2053.8562  2057.3462
  2004.9970  2008.4869  2008.4869  2011.9769  2011.9769  2015.4668
  2015.4668  2018.9568  2018.9568  2022.4467  2022.4467  2025.9367
  2025.9367  2029.4266  2029.4266  2032.9166  2032.9166  2036.4065
  2036.4065  2039.8965  2039.8965  2043.3864  2043.3864  2046.8764
  2046.8764  2050.3663  2050.3663  2053.8562  2053.8562  2057.3462
  2004.9970  2008.4869  2008.4869  2011.9769  2011.9769  2015.4668
  2015.4668  2018.9568  2018.9568  2022.4467  2022.4467  2025.9367
  2025.9367  2029.4266  2029.4266  2032.9166  2032.9166  2036.4065
  2036.4065  2039.8965  2039.8965  2043.3864  2043.3864  2046.8764
  2046.8764  2050.3663  2050.3663  2053.8562  2053.8562  2057.3462
  2004.9970  2008.4869  2008.4869  2011.9769  2011.9769  2015.4668
  2015.4668  2018.9568  2018.9568  2022.4467  2022.4467  2025.9367
  2025.9367  2029.4266  2029.4266  2032.9166  2032.9166  2036.4065
  2036.4065  2039.8965  2039.8965  2043.3864  2043.3864  2046.8764
  2046.8764  2050.3663  2050.3663  2053.8562  2053.8562  2057.3462
  2004.9970  2008.4869  2008.4869  2011.9769  2011.9769  2015.4668
  2015.4668  2018.9568  2018.9568  2022.4467  2022.4467  2025.9367
  2025.9367  2029.4266  2029.4266  2032.9166  2032.9166  2036.4065
  2036.4065  2039.8965  2039.8965  2043.3864  2043.3864  2046.8764
  2046.8764  2050.3663  2050.3663  2053.8562  2053.8562  2057.3462
  2004.9970  2008.4869  2008.4869  2011.9769  2011.9769  2015.4668
  2015.4668  2018.9568  2018.9568  2022.4467  2022.4467  2025.9367
  2025.9367  2029.4266  2029.4266  2032.9166  2032.9166  2036.4065
  2036.4065  2039.8965  2039.8965  2043.3864  2043.3864  2046.8764
  2046.8764  2050.3663  2050.3663  2053.8562  2053.8562  2057.3462
  2004.9970  2008.4869  2008.4869  2011.9769  2011.9769  2015.4668
  2015.4668  2018.9568  2018.9568  2022.4467  2022.4467  2025.9367
  2025.9367  2029.4266  2029.4266  2032.9166  2032.9166  2036.4065
  2036.4065  2039.8965  2039.8965  2043.3864  2043.3864  2046.8764
  2046.8764  2050.3663  2050.3663  2053.8562  2053.8562  2057.3462
  2004.9970  2008.4869  2008.4869  2011.9769  2011.9769  2015.4668
  2015.4668  2018.9568  2018.9568  2022.4467  2022.4467  2025.9367
  2025.9367  2029.4266  2029.4266  2032.9166  2032.9166  2036.4065
  2036.4065  2039.8965  2039.8965  2043.3864  2043.3864  2046.8764
  2046.8764  2050.3663  2050.3663  2053.8562  2053.8562  2057.3462
  2004.9970  2008.4869  2008.4869  2011.9769  2011.9769  2015.4668
  2015.4668  2018.9568  2018.9568  2022.4467  2022.4467  2025.9367
  2025.9367  2029.4266  2029.4266  2032.9166  2032.9166  2036.4065
  2036.4065  2039.8965  2039.8965  2043.3864  2043.3864  2046.8764
  2046.8764  2050.3663  2050.3663  2053.8562  2053.8562  2057.3462
  2004.9970  2008.4869  2008.4869  2011.9769  2011.9769  2015.4668
  2015.4668  2018.9568  2018.9568  2022.4467  2022.4467  2025.9367
  2025.9367  2029.4266  2029.4266  2032.9166  2032.9166  2036.4065
  2036.4065  2039.8965  2039.8965  2043.3864  2043.3864  2046.8764
  2046.8764  2050.3663  2050.3663  2053.8562  2053.8562  2057.3462
  2004.9970  2008.4869  2008.4869  2011.9769  2011.9769  2015.4668
  2015.4668  2018.9568  2018.9568  2022.4467  2022.4467  2025.9367
  2025.9367  2029.4266  2029.4266  2032.9166  2032.9166  2036.4065
  2036.4065  2039.8965  2039.8965  2043.3864  2043.3864  2046.8764
  2046.8764  2050.3663  2050.3663  2053.8562  2053.8562  2057.3462
  2004.9970  2008.4869  2008.4869  2011.9769  2011.9769  2015.4668
  2015.4668  2018.9568  2018.9568  2022.4467  2022.4467  2025.9367
  2025.9367  2029.4266  2029.4266  2032.9166  2032.9166  2036.4065
  2036.4065  2039.8965  2039.8965  2043.3864  2043.3864  2046.8764
  2046.8764  2050.3663  2050.3663  2053.8562  2053.8562  2057.3462
  2004.9970  2008.4869  2008.4869  2011.9769  2011.9769  2015.4668
  2015.4668  2018.9568  2018.9568  2022.4467  2022.4467  2025.9367
  2025.9367  2029.4266  2029.4266  2032.9166  2032.9166  2036.4065
  2036.4065  2039.8965  2039.8965  2043.3864  2043.3864  2046.8764
  2046.8764  2050.3663  2050.3663  2053.8562  2053.8562  2057.3462
  2004.9970  2008.4869  2008.4869  2011.9769  2011.9769  2015.4668
  2015.4668  2018.9568  2018.9568  2022.4467  2022.4467  2025.9367
  2025.9367  2029.4266  2029.4266  2032.9166  2032.9166  2036.4065
  2036.4065  2039.8965  2039.8965  2043.3864  2043.3864  2046.8764
  2046.8764  2050.3663  2050.3663  2053.8562  2053.8562  2057.3462
  2004.9970  2008.4869  2008.4869  2011.9769  2011.9769  2015.4668
  2015.4668  2018.9568  2018.9568  2022.4467  2022.4467  2025.9367
  2025.9367  2029.4266  2029.4266  2032.9166  2032.9166  2036.4065
  2036.4065  2039.8965  2039.8965  2043.3864  2043.3864  2046.8764
  2046.8764  2050.3663  2050.3663  2053.8562  2053.8562  2057.3462
  2004.9970  2008.4869  2008.4869  2011.9769  2011.9769  2015.4668
  2015.4668  2018.9568  2018.9568  2022.4467  2022.4467  2025.9367
  2025.9367  2029.4266  2029.4266  2032.9166  2032.9166  2036.4065
  2036.4065  2039.8965  2039.8965  2043.3864  2043.3864  2046.8764
  2046.8764  2050.3663  2050.3663  2053.8562  2053.8562  2057.3462
  2004.9970  2008.4869  2008.4869  2011.9769  2011.9769  2015.4668
  2015.4668  2018.9568  2018.9568  2022.4467  2022.4467  2025.9367
  2025.9367  2029.4266  2029.4266  2032.9166  2032.9166  2036.4065
  2036.4065  2039.8965  2039.8965  2043.3864  2043.3864  2046.8764
  2046.8764  2050.3663  2050.3663  2053.8562  2053.8562  2057.3462
  2004.9970  2008.4869  2008.4869  2011.9769  2011.9769  2015.4668
  2015.4668  2018.9568  2018.9568  2022.4467  2022.4467  2025.9367
  2025.9367  2029.4266  2029.4266  2032.9166  2032.9166  2036.4065
  2036.4065  2039.8965  2039.8965  2043.3864  2043.3864  2046.8764
  2046.8764  2050.3663  2050.3663  2053.8562  2053.8562  2057.3462
  2004.9970  2008.4869  2008.4869  2011.9769  2011.9769  2015.4668
  2015.4668  2018.9568  2018.9568  2022.4467  2022.4467  2025.9367
  2025.9367  2029.4266  2029.4266  2032.9166  2032.9166  2036.4065
  2036.4065  2039.8965  2039.8965  2043.3864  2043.3864  2046.8764
  2046.8764  2050.3663  2050.3663  2053.8562  2053.8562  2057.3462
  2004.9970  2008.4869  2008.4869  2011.9769  2011.9769  2015.4668
  2015.4668  2018.9568  2018.9568  2022.4467  2022.4467  2025.9367
  2025.9367  2029.4266  2029.4266  2032.9166  2032.9166  2036.4065
  2036.4065  2039.8965  2039.8965  2043.3864  2043.3864  2046.8764
  2046.8764  2050.3663  2050.3663  2053.8562  2053.8562  2057.3462
  2004.9970  2008.4869  2008.4869  2011.9769  2011.9769  2015.4668
  2015.4668  2018.9568  2018.9568  2022.4467  2022.4467  2025.9367
  2025.9367  2029.4266  2029.4266  2032.9166  2032.9166  2036.4065
  2036.4065  2039.8965  2039.8965  2043.3864  2043.3864  2046.8764
  2046.8764  2050.3663  2050.3663  2053.8562  2053.8562  2057.3462
  2004.9970  2008.4869  2008.4869  2011.9769  2011.9769  2015.4668
  2015.4668  2018.9568  2018.9568  2022.4467  2022.4467  2025.9367
  2025.9367  2029.4266  2029.4266  2032.9166  2032.9166  2036.4065
  2036.4065  2039.8965  2039.8965  2043.3864  2043.3864  2046.8764
  2046.8764  2050.3663  2050.3663  2053.8562  2053.8562  2057.3462
  2004.9970  2008.4869  2008.4869  2011.9769  2011.9769  2015.4668
  2015.4668  2018.9568  2018.9568  2022.4467  2022.4467  2025.9367
  2025.9367  2029.4266  2029.4266  2032.9166  2032.9166  2036.4065
  2036.4065  2039.8965  2039.8965  2043.3864  2043.3864  2046.8764
  2046.8764  2050.3663  2050.3663  2053.8562  2053.8562  2057.3462
  2004.9970  2008.4869  2008.4869  2011.9769  2011.9769  2015.4668
  2015.4668  2018.9568  2018.9568  2022.4467  2022.4467  2025.9367
  2025.9367  2029.4266  2029.4266  2032.9166  2032.9166  2036.4065
  2036.4065  2039.8965  2039.8965  2043.3864  2043.3864  2046.8764
  2046.8764  2050.3663  2050.3663  2053.8562  2053.8562  2057.3462
  2004.9970  2008.4869  2008.4869  2011.9769  2011.9769  2015.4668
  2015.4668  2018.9568  2018.9568  2022.4467  2022.4467  2025.9367
  2025.9367  2029.4266  2029.4266  2032.9166  2032.9166  2036.4065
  2036.4065  2039.8965  2039.8965  2043.3864  2043.3864  2046.8764
  2046.8764  2050.3663  2050.3663  2053.8562  2053.8562  2057.3462
  2004.9970  2008.4869  2008.4869  2011.9769  2011.9769  2015.4668
  2015.4668  2018.9568  2018.9568  2022.4467  2022.4467  2025.9367
  2025.9367  2029.4266  2029.4266  2032.9166  2032.9166  2036.4065
  2036.4065  2039.8965  2039.8965  2043.3864  2043.3864  2046.8764
  2046.8764  2050.3663  2050.3663  2053.8562  2053.8562  2057.3462
  2004.9970  2008.4869  2008.4869  2011.9769  2011.9769  2015.4668