-- This reservoir simulation deck is made available under the Open Database
-- License: http://opendatacommons.org/licenses/odbl/1.0/. Any rights in
-- individual contents of the database are licensed under the Database Contents
-- License: http://opendatacommons.org/licenses/dbcl/1.0/
--  
-- Copyright (C) 2022 Equinor

GRIDUNIT
 'CM' /

SPECGRID
 5 7 5 1 F / 

COORD
 200000.0000 200000.0000 200000.0000  199984.2952 199992.1464 201748.6674 
 209993.9083 200000.0000 200348.9950  209978.2035 199992.1464 202097.6624 
 219987.8165 200000.0000 200697.9899  219972.1118 199992.1464 202446.6573 
 229981.7248 200000.0000 201046.9849  229966.0200 199992.1464 202795.6523 
 239975.6331 200000.0000 201395.9799  239959.9283 199992.1464 203144.6473 
 249969.5414 200000.0000 201744.9748  249953.8366 199992.1464 203493.6422 
 200000.0000 209998.4770 200174.5241  199984.2952 209990.6234 201923.1915 
 209993.9083 209998.4770 200523.5190  209978.2035 209990.6234 202272.1864 
 219987.8165 209998.4770 200872.5140  219972.1118 209990.6234 202621.1814 
 229981.7248 209998.4770 201221.5090  229966.0200 209990.6234 202970.1764 
 239975.6331 209998.4770 201570.5039  239959.9283 209990.6234 203319.1713 
 249969.5414 209998.4770 201919.4989  249953.8366 209990.6234 203668.1663 
 200000.0000 219996.9539 200349.0481  199984.2952 219989.1003 202097.7155 
 209993.9083 219996.9539 200698.0431  209978.2035 219989.1003 202446.7105 
 219987.8165 219996.9539 201047.0381  219972.1118 219989.1003 202795.7055 
 229981.7248 219996.9539 201396.0330  229966.0200 219989.1003 203144.7004 
 239975.6331 219996.9539 201745.0280  239959.9283 219989.1003 203493.6954 
 249969.5414 219996.9539 202094.0230  249953.8366 219989.1003 203842.6904 
 200000.0000 229995.4309 200523.5722  199984.2952 229987.5773 202272.2396 
 209993.9083 229995.4309 200872.5672  209978.2035 229987.5773 202621.2346 
 219987.8165 229995.4309 201221.5621  219972.1118 229987.5773 202970.2295 
 229981.7248 229995.4309 201570.5571  229966.0200 229987.5773 203319.2245 
 239975.6331 229995.4309 201919.5521  239959.9283 229987.5773 203668.2195 
 249969.5414 229995.4309 202268.5470  249953.8366 229987.5773 204017.2144 
 200000.0000 239993.9078 200698.0963  199984.2952 239986.0542 202446.7637 
 209993.9083 239993.9078 201047.0912  209978.2035 239986.0542 202795.7586 
 219987.8165 239993.9078 201396.0862  219972.1118 239986.0542 203144.7536 
 229981.7248 239993.9078 201745.0812  229966.0200 239986.0542 203493.7486 
 239975.6331 239993.9078 202094.0761  239959.9283 239986.0542 203842.7435 
 249969.5414 239993.9078 202443.0711  249953.8366 239986.0542 204191.7385 
 200000.0000 249992.3848 200872.6203  199984.2952 249984.5312 202621.2877 
 209993.9083 249992.3848 201221.6153  209978.2035 249984.5312 202970.2827 
 219987.8165 249992.3848 201570.6103  219972.1118 249984.5312 203319.2777 
 229981.7248 249992.3848 201919.6052  229966.0200 249984.5312 203668.2726 
 239975.6331 249992.3848 202268.6002  239959.9283 249984.5312 204017.2676 
 249969.5414 249992.3848 202617.5952  249953.8366 249984.5312 204366.2626 
 200000.0000 259990.8617 201047.1444  199984.2952 259983.0081 202795.8118 
 209993.9083 259990.8617 201396.1394  209978.2035 259983.0081 203144.8068 
 219987.8165 259990.8617 201745.1343  219972.1118 259983.0081 203493.8017 
 229981.7248 259990.8617 202094.1293  229966.0200 259983.0081 203842.7967 
 239975.6331 259990.8617 202443.1243  239959.9283 259983.0081 204191.7917 
 249969.5414 259990.8617 202792.1192  249953.8366 259983.0081 204540.7866 
 200000.0000 269989.3387 201221.6685  199984.2952 269981.4851 202970.3359 
 209993.9083 269989.3387 201570.6634  209978.2035 269981.4851 203319.3308 
 219987.8165 269989.3387 201919.6584  219972.1118 269981.4851 203668.3258 
 229981.7248 269989.3387 202268.6534  229966.0200 269981.4851 204017.3208 
 239975.6331 269989.3387 202617.6483  239959.9283 269981.4851 204366.3157 
 249969.5414 269989.3387 202966.6433  249953.8366 269981.4851 204715.3107 
/ 

ZCORN
 200000.0000 200348.9950 200348.9950 200697.9899 200697.9899 201046.9849
 201046.9849 201395.9799 201395.9799 201744.9748 200174.5241 200523.5190
 200523.5190 200872.5140 200872.5140 201221.5090 201221.5090 201570.5039
 201570.5039 201919.4989 200174.5241 200523.5190 200523.5190 200872.5140
 200872.5140 201221.5090 201221.5090 201570.5039 201570.5039 201919.4989
 200349.0481 200698.0431 200698.0431 201047.0381 201047.0381 201396.0330
 201396.0330 201745.0280 201745.0280 202094.0230 200349.0481 200698.0431
 200698.0431 201047.0381 201047.0381 201396.0330 201396.0330 201745.0280
 201745.0280 202094.0230 200523.5722 200872.5672 200872.5672 201221.5621
 201221.5621 201570.5571 201570.5571 201919.5521 201919.5521 202268.5470
 200523.5722 200872.5672 200872.5672 201221.5621 201221.5621 201570.5571
 201570.5571 201919.5521 201919.5521 202268.5470 200698.0963 201047.0912
 201047.0912 201396.0862 201396.0862 201745.0812 201745.0812 202094.0761
 202094.0761 202443.0711 200698.0963 201047.0912 201047.0912 201396.0862
 201396.0862 201745.0812 201745.0812 202094.0761 202094.0761 202443.0711
 200872.6203 201221.6153 201221.6153 201570.6103 201570.6103 201919.6052
 201919.6052 202268.6002 202268.6002 202617.5952 200872.6203 201221.6153
 201221.6153 201570.6103 201570.6103 201919.6052 201919.6052 202268.6002
 202268.6002 202617.5952 201047.1444 201396.1394 201396.1394 201745.1343
 201745.1343 202094.1293 202094.1293 202443.1243 202443.1243 202792.1192
 201047.1444 201396.1394 201396.1394 201745.1343 201745.1343 202094.1293
 202094.1293 202443.1243 202443.1243 202792.1192 201221.6685 201570.6634
 201570.6634 201919.6584 201919.6584 202268.6534 202268.6534 202617.6483
 202617.6483 202966.6433 200249.8096 200598.8046 200598.8046 200947.7996
 200947.7996 201296.7945 201296.7945 201645.7895 201645.7895 201994.7845
 200424.3337 200773.3287 200773.3287 201122.3236 201122.3236 201471.3186
 201471.3186 201820.3136 201820.3136 202169.3085 200424.3337 200773.3287
 200773.3287 201122.3236 201122.3236 201471.3186 201471.3186 201820.3136
 201820.3136 202169.3085 200598.8578 200947.8527 200947.8527 201296.8477
 201296.8477 201645.8427 201645.8427 201994.8376 201994.8376 202343.8326
 200598.8578 200947.8527 200947.8527 201296.8477 201296.8477 201645.8427
 201645.8427 201994.8376 201994.8376 202343.8326 200773.3818 201122.3768
 201122.3768 201471.3718 201471.3718 201820.3667 201820.3667 202169.3617
 202169.3617 202518.3567 200773.3818 201122.3768 201122.3768 201471.3718
 201471.3718 201820.3667 201820.3667 202169.3617 202169.3617 202518.3567
 200947.9059 201296.9009 201296.9009 201645.8958 201645.8958 201994.8908
 201994.8908 202343.8858 202343.8858 202692.8807 200947.9059 201296.9009
 201296.9009 201645.8958 201645.8958 201994.8908 201994.8908 202343.8858
 202343.8858 202692.8807 201122.4300 201471.4249 201471.4249 201820.4199
 201820.4199 202169.4149 202169.4149 202518.4098 202518.4098 202867.4048
 201122.4300 201471.4249 201471.4249 201820.4199 201820.4199 202169.4149
 202169.4149 202518.4098 202518.4098 202867.4048 201296.9540 201645.9490
 201645.9490 201994.9440 201994.9440 202343.9389 202343.9389 202692.9339
 202692.9339 203041.9289 201296.9540 201645.9490 201645.9490 201994.9440
 201994.9440 202343.9389 202343.9389 202692.9339 202692.9339 203041.9289
 201471.4781 201820.4730 201820.4730 202169.4680 202169.4680 202518.4630
 202518.4630 202867.4579 202867.4579 203216.4529 200249.8096 200598.8046
 200598.8046 200947.7996 200947.7996 201296.7945 201296.7945 201645.7895
 201645.7895 201994.7845 200424.3337 200773.3287 200773.3287 201122.3236
 201122.3236 201471.3186 201471.3186 201820.3136 201820.3136 202169.3085
 200424.3337 200773.3287 200773.3287 201122.3236 201122.3236 201471.3186
 201471.3186 201820.3136 201820.3136 202169.3085 200598.8578 200947.8527
 200947.8527 201296.8477 201296.8477 201645.8427 201645.8427 201994.8376
 201994.8376 202343.8326 200598.8578 200947.8527 200947.8527 201296.8477
 201296.8477 201645.8427 201645.8427 201994.8376 201994.8376 202343.8326
 200773.3818 201122.3768 201122.3768 201471.3718 201471.3718 201820.3667
 201820.3667 202169.3617 202169.3617 202518.3567 200773.3818 201122.3768
 201122.3768 201471.3718 201471.3718 201820.3667 201820.3667 202169.3617
 202169.3617 202518.3567 200947.9059 201296.9009 201296.9009 201645.8958
 201645.8958 201994.8908 201994.8908 202343.8858 202343.8858 202692.8807
 200947.9059 201296.9009 201296.9009 201645.8958 201645.8958 201994.8908
 201994.8908 202343.8858 202343.8858 202692.8807 201122.4300 201471.4249
 201471.4249 201820.4199 201820.4199 202169.4149 202169.4149 202518.4098
 202518.4098 202867.4048 201122.4300 201471.4249 201471.4249 201820.4199
 201820.4199 202169.4149 202169.4149 202518.4098 202518.4098 202867.4048
 201296.9540 201645.9490 201645.9490 201994.9440 201994.9440 202343.9389
 202343.9389 202692.9339 202692.9339 203041.9289 201296.9540 201645.9490
 201645.9490 201994.9440 201994.9440 202343.9389 202343.9389 202692.9339
 202692.9339 203041.9289 201471.4781 201820.4730 201820.4730 202169.4680
 202169.4680 202518.4630 202518.4630 202867.4579 202867.4579 203216.4529
 200549.5812 200898.5762 200898.5762 201247.5711 201247.5711 201596.5661
 201596.5661 201945.5611 201945.5611 202294.5560 200724.1053 201073.1002
 201073.1002 201422.0952 201422.0952 201771.0902 201771.0902 202120.0851
 202120.0851 202469.0801 200724.1053 201073.1002 201073.1002 201422.0952
 201422.0952 201771.0902 201771.0902 202120.0851 202120.0851 202469.0801
 200898.6293 201247.6243 201247.6243 201596.6192 201596.6192 201945.6142
 201945.6142 202294.6092 202294.6092 202643.6042 200898.6293 201247.6243
 201247.6243 201596.6192 201596.6192 201945.6142 201945.6142 202294.6092
 202294.6092 202643.6042 201073.1534 201422.1483 201422.1483 201771.1433
 201771.1433 202120.1383 202120.1383 202469.1332 202469.1332 202818.1282
 201073.1534 201422.1483 201422.1483 201771.1433 201771.1433 202120.1383
 202120.1383 202469.1332 202469.1332 202818.1282 201247.6774 201596.6724
 201596.6724 201945.6674 201945.6674 202294.6623 202294.6623 202643.6573
 202643.6573 202992.6523 201247.6774 201596.6724 201596.6724 201945.6674
 201945.6674 202294.6623 202294.6623 202643.6573 202643.6573 202992.6523
 201422.2015 201771.1965 201771.1965 202120.1914 202120.1914 202469.1864
 202469.1864 202818.1814 202818.1814 203167.1763 201422.2015 201771.1965
 201771.1965 202120.1914 202120.1914 202469.1864 202469.1864 202818.1814
 202818.1814 203167.1763 201596.7256 201945.7205 201945.7205 202294.7155
 202294.7155 202643.7105 202643.7105 202992.7054 202992.7054 203341.7004
 201596.7256 201945.7205 201945.7205 202294.7155 202294.7155 202643.7105
 202643.7105 202992.7054 202992.7054 203341.7004 201771.2496 202120.2446
 202120.2446 202469.2396 202469.2396 202818.2345 202818.2345 203167.2295
 203167.2295 203516.2245 200549.5812 200898.5762 200898.5762 201247.5711
 201247.5711 201596.5661 201596.5661 201945.5611 201945.5611 202294.5560
 200724.1053 201073.1002 201073.1002 201422.0952 201422.0952 201771.0902
 201771.0902 202120.0851 202120.0851 202469.0801 200724.1053 201073.1002
 201073.1002 201422.0952 201422.0952 201771.0902 201771.0902 202120.0851
 202120.0851 202469.0801 200898.6293 201247.6243 201247.6243 201596.6192
 201596.6192 201945.6142 201945.6142 202294.6092 202294.6092 202643.6042
 200898.6293 201247.6243 201247.6243 201596.6192 201596.6192 201945.6142
 201945.6142 202294.6092 202294.6092 202643.6042 201073.1534 201422.1483
 201422.1483 201771.1433 201771.1433 202120.1383 202120.1383 202469.1332
 202469.1332 202818.1282 201073.1534 201422.1483 201422.1483 201771.1433
 201771.1433 202120.1383 202120.1383 202469.1332 202469.1332 202818.1282
 201247.6774 201596.6724 201596.6724 201945.6674 201945.6674 202294.6623
 202294.6623 202643.6573 202643.6573 202992.6523 201247.6774 201596.6724
 201596.6724 201945.6674 201945.6674 202294.6623 202294.6623 202643.6573
 202643.6573 202992.6523 201422.2015 201771.1965 201771.1965 202120.1914
 202120.1914 202469.1864 202469.1864 202818.1814 202818.1814 203167.1763
 201422.2015 201771.1965 201771.1965 202120.1914 202120.1914 202469.1864
 202469.1864 202818.1814 202818.1814 203167.1763 201596.7256 201945.7205
 201945.7205 202294.7155 202294.7155 202643.7105 202643.7105 202992.7054
 202992.7054 203341.7004 201596.7256 201945.7205 201945.7205 202294.7155
 202294.7155 202643.7105 202643.7105 202992.7054 202992.7054 203341.7004
 201771.2496 202120.2446 202120.2446 202469.2396 202469.2396 202818.2345
 202818.2345 203167.2295 203167.2295 203516.2245 200899.3147 201248.3096
 201248.3096 201597.3046 201597.3046 201946.2996 201946.2996 202295.2945
 202295.2945 202644.2895 201073.8387 201422.8337 201422.8337 201771.8287
 201771.8287 202120.8236 202120.8236 202469.8186 202469.8186 202818.8136
 201073.8387 201422.8337 201422.8337 201771.8287 201771.8287 202120.8236
 202120.8236 202469.8186 202469.8186 202818.8136 201248.3628 201597.3578
 201597.3578 201946.3527 201946.3527 202295.3477 202295.3477 202644.3427
 202644.3427 202993.3376 201248.3628 201597.3578 201597.3578 201946.3527
 201946.3527 202295.3477 202295.3477 202644.3427 202644.3427 202993.3376
 201422.8869 201771.8818 201771.8818 202120.8768 202120.8768 202469.8718
 202469.8718 202818.8667 202818.8667 203167.8617 201422.8869 201771.8818
 201771.8818 202120.8768 202120.8768 202469.8718 202469.8718 202818.8667
 202818.8667 203167.8617 201597.4109 201946.4059 201946.4059 202295.4009
 202295.4009 202644.3958 202644.3958 202993.3908 202993.3908 203342.3858
 201597.4109 201946.4059 201946.4059 202295.4009 202295.4009 202644.3958
 202644.3958 202993.3908 202993.3908 203342.3858 201771.9350 202120.9300
 202120.9300 202469.9249 202469.9249 202818.9199 202818.9199 203167.9149
 203167.9149 203516.9098 201771.9350 202120.9300 202120.9300 202469.9249
 202469.9249 202818.9199 202818.9199 203167.9149 203167.9149 203516.9098
 201946.4591 202295.4540 202295.4540 202644.4490 202644.4490 202993.4440
 202993.4440 203342.4389 203342.4389 203691.4339 201946.4591 202295.4540
 202295.4540 202644.4490 202644.4490 202993.4440 202993.4440 203342.4389
 203342.4389 203691.4339 202120.9831 202469.9781 202469.9781 202818.9731
 202818.9731 203167.9680 203167.9680 203516.9630 203516.9630 203865.9580
 200899.3147 201248.3096 201248.3096 201597.3046 201597.3046 201946.2996
 201946.2996 202295.2945 202295.2945 202644.2895 201073.8387 201422.8337
 201422.8337 201771.8287 201771.8287 202120.8236 202120.8236 202469.8186
 202469.8186 202818.8136 201073.8387 201422.8337 201422.8337 201771.8287
 201771.8287 202120.8236 202120.8236 202469.8186 202469.8186 202818.8136
 201248.3628 201597.3578 201597.3578 201946.3527 201946.3527 202295.3477
 202295.3477 202644.3427 202644.3427 202993.3376 201248.3628 201597.3578
 201597.3578 201946.3527 201946.3527 202295.3477 202295.3477 202644.3427
 202644.3427 202993.3376 201422.8869 201771.8818 201771.8818 202120.8768
 202120.8768 202469.8718 202469.8718 202818.8667 202818.8667 203167.8617
 201422.8869 201771.8818 201771.8818 202120.8768 202120.8768 202469.8718
 202469.8718 202818.8667 202818.8667 203167.8617 201597.4109 201946.4059
 201946.4059 202295.4009 202295.4009 202644.3958 202644.3958 202993.3908
 202993.3908 203342.3858 201597.4109 201946.4059 201946.4059 202295.4009
 202295.4009 202644.3958 202644.3958 202993.3908 202993.3908 203342.3858
 201771.9350 202120.9300 202120.9300 202469.9249 202469.9249 202818.9199
 202818.9199 203167.9149 203167.9149 203516.9098 201771.9350 202120.9300
 202120.9300 202469.9249 202469.9249 202818.9199 202818.9199 203167.9149
 203167.9149 203516.9098 201946.4591 202295.4540 202295.4540 202644.4490
 202644.4490 202993.4440 202993.4440 203342.4389 203342.4389 203691.4339
 201946.4591 202295.4540 202295.4540 202644.4490 202644.4490 202993.4440
 202993.4440 203342.4389 203342.4389 203691.4339 202120.9831 202469.9781
 202469.9781 202818.9731 202818.9731 203167.9680 203167.9680 203516.9630
 203516.9630 203865.9580 201299.0101 201648.0050 201648.0050 201997.0000
 201997.0000 202345.9950 202345.9950 202694.9899 202694.9899 203043.9849
 201473.5341 201822.5291 201822.5291 202171.5241 202171.5241 202520.5190
 202520.5190 202869.5140 202869.5140 203218.5090 201473.5341 201822.5291
 201822.5291 202171.5241 202171.5241 202520.5190 202520.5190 202869.5140
 202869.5140 203218.5090 201648.0582 201997.0532 201997.0532 202346.0481
 202346.0481 202695.0431 202695.0431 203044.0381 203044.0381 203393.0330
 201648.0582 201997.0532 201997.0532 202346.0481 202346.0481 202695.0431
 202695.0431 203044.0381 203044.0381 203393.0330 201822.5823 202171.5772
 202171.5772 202520.5722 202520.5722 202869.5672 202869.5672 203218.5621
 203218.5621 203567.5571 201822.5823 202171.5772 202171.5772 202520.5722
 202520.5722 202869.5672 202869.5672 203218.5621 203218.5621 203567.5571
 201997.1063 202346.1013 202346.1013 202695.0963 202695.0963 203044.0912
 203044.0912 203393.0862 203393.0862 203742.0812 201997.1063 202346.1013
 202346.1013 202695.0963 202695.0963 203044.0912 203044.0912 203393.0862
 203393.0862 203742.0812 202171.6304 202520.6254 202520.6254 202869.6203
 202869.6203 203218.6153 203218.6153 203567.6103 203567.6103 203916.6052
 202171.6304 202520.6254 202520.6254 202869.6203 202869.6203 203218.6153
 203218.6153 203567.6103 203567.6103 203916.6052 202346.1545 202695.1494
 202695.1494 203044.1444 203044.1444 203393.1394 203393.1394 203742.1343
 203742.1343 204091.1293 202346.1545 202695.1494 202695.1494 203044.1444
 203044.1444 203393.1394 203393.1394 203742.1343 203742.1343 204091.1293
 202520.6785 202869.6735 202869.6735 203218.6685 203218.6685 203567.6634
 203567.6634 203916.6584 203916.6584 204265.6534 201299.0101 201648.0050
 201648.0050 201997.0000 201997.0000 202345.9950 202345.9950 202694.9899
 202694.9899 203043.9849 201473.5341 201822.5291 201822.5291 202171.5241
 202171.5241 202520.5190 202520.5190 202869.5140 202869.5140 203218.5090
 201473.5341 201822.5291 201822.5291 202171.5241 202171.5241 202520.5190
 202520.5190 202869.5140 202869.5140 203218.5090 201648.0582 201997.0532
 201997.0532 202346.0481 202346.0481 202695.0431 202695.0431 203044.0381
 203044.0381 203393.0330 201648.0582 201997.0532 201997.0532 202346.0481
 202346.0481 202695.0431 202695.0431 203044.0381 203044.0381 203393.0330
 201822.5823 202171.5772 202171.5772 202520.5722 202520.5722 202869.5672
 202869.5672 203218.5621 203218.5621 203567.5571 201822.5823 202171.5772
 202171.5772 202520.5722 202520.5722 202869.5672 202869.5672 203218.5621
 203218.5621 203567.5571 201997.1063 202346.1013 202346.1013 202695.0963
 202695.0963 203044.0912 203044.0912 203393.0862 203393.0862 203742.0812
 201997.1063 202346.1013 202346.1013 202695.0963 202695.0963 203044.0912
 203044.0912 203393.0862 203393.0862 203742.0812 202171.6304 202520.6254
 202520.6254 202869.6203 202869.6203 203218.6153 203218.6153 203567.6103
 203567.6103 203916.6052 202171.6304 202520.6254 202520.6254 202869.6203
 202869.6203 203218.6153 203218.6153 203567.6103 203567.6103 203916.6052
 202346.1545 202695.1494 202695.1494 203044.1444 203044.1444 203393.1394
 203393.1394 203742.1343 203742.1343 204091.1293 202346.1545 202695.1494
 202695.1494 203044.1444 203044.1444 203393.1394 203393.1394 203742.1343
 203742.1343 204091.1293 202520.6785 202869.6735 202869.6735 203218.6685
 203218.6685 203567.6634 203567.6634 203916.6584 203916.6584 204265.6534
 201748.6674 202097.6624 202097.6624 202446.6573 202446.6573 202795.6523
 202795.6523 203144.6473 203144.6473 203493.6422 201923.1915 202272.1864
 202272.1864 202621.1814 202621.1814 202970.1764 202970.1764 203319.1713
 203319.1713 203668.1663 201923.1915 202272.1864 202272.1864 202621.1814
 202621.1814 202970.1764 202970.1764 203319.1713 203319.1713 203668.1663
 202097.7155 202446.7105 202446.7105 202795.7055 202795.7055 203144.7004
 203144.7004 203493.6954 203493.6954 203842.6904 202097.7155 202446.7105
 202446.7105 202795.7055 202795.7055 203144.7004 203144.7004 203493.6954
 203493.6954 203842.6904 202272.2396 202621.2346 202621.2346 202970.2295
 202970.2295 203319.2245 203319.2245 203668.2195 203668.2195 204017.2144
 202272.2396 202621.2346 202621.2346 202970.2295 202970.2295 203319.2245
 203319.2245 203668.2195 203668.2195 204017.2144 202446.7637 202795.7586
 202795.7586 203144.7536 203144.7536 203493.7486 203493.7486 203842.7435
 203842.7435 204191.7385 202446.7637 202795.7586 202795.7586 203144.7536
 203144.7536 203493.7486 203493.7486 203842.7435 203842.7435 204191.7385
 202621.2877 202970.2827 202970.2827 203319.2777 203319.2777 203668.2726
 203668.2726 204017.2676 204017.2676 204366.2626 202621.2877 202970.2827
 202970.2827 203319.2777 203319.2777 203668.2726 203668.2726 204017.2676
 204017.2676 204366.2626 202795.8118 203144.8068 203144.8068 203493.8017
 203493.8017 203842.7967 203842.7967 204191.7917 204191.7917 204540.7866
 202795.8118 203144.8068 203144.8068 203493.8017 203493.8017 203842.7967
 203842.7967 204191.7917 204191.7917 204540.7866 202970.3359 203319.3308
 203319.3308 203668.3258 203668.3258 204017.3208 204017.3208 204366.3157
 204366.3157 204715.3107 / 
