-- This reservoir simulation deck is made available under the Open Database
-- License: http://opendatacommons.org/licenses/odbl/1.0/. Any rights in
-- individual contents of the database are licensed under the Database Contents
-- License: http://opendatacommons.org/licenses/dbcl/1.0/
--  
-- Copyright (C) 2022 Equinor


GRIDUNIT
 METRES /
 
SPECGRID
 5 7 5 1 F / 

COORD
  2000.0000  2000.0000  2000.0000   1999.8430  1999.9215  2017.4867 
  2099.9391  2000.0000  2003.4899   2099.7820  1999.9215  2020.9766 
  2199.8782  2000.0000  2006.9799   2199.7211  1999.9215  2024.4666 
  2299.8172  2000.0000  2010.4698   2299.6602  1999.9215  2027.9565 
  2399.7563  2000.0000  2013.9598   2399.5993  1999.9215  2031.4465 
  2499.6954  2000.0000  2017.4497   2499.5384  1999.9215  2034.9364 
  2000.0000  2099.9848  2001.7452   1999.8430  2099.9062  2019.2319 
  2099.9391  2099.9848  2005.2352   2099.7820  2099.9062  2022.7219 
  2199.8782  2099.9848  2008.7251   2199.7211  2099.9062  2026.2118 
  2299.8172  2099.9848  2012.2151   2299.6602  2099.9062  2029.7018 
  2399.7563  2099.9848  2015.7050   2399.5993  2099.9062  2033.1917 
  2499.6954  2099.9848  2019.1950   2499.5384  2099.9062  2036.6817 
  2000.0000  2199.9695  2003.4905   1999.8430  2199.8910  2020.9772 
  2099.9391  2199.9695  2006.9804   2099.7820  2199.8910  2024.4671 
  2199.8782  2199.9695  2010.4704   2199.7211  2199.8910  2027.9571 
  2299.8172  2199.9695  2013.9603   2299.6602  2199.8910  2031.4470 
  2399.7563  2199.9695  2017.4503   2399.5993  2199.8910  2034.9370 
  2499.6954  2199.9695  2020.9402   2499.5384  2199.8910  2038.4269 
  2000.0000  2299.9543  2005.2357   1999.8430  2299.8758  2022.7224 
  2099.9391  2299.9543  2008.7257   2099.7820  2299.8758  2026.2123 
  2199.8782  2299.9543  2012.2156   2199.7211  2299.8758  2029.7023 
  2299.8172  2299.9543  2015.7056   2299.6602  2299.8758  2033.1922 
  2399.7563  2299.9543  2019.1955   2399.5993  2299.8758  2036.6822 
  2499.6954  2299.9543  2022.6855   2499.5384  2299.8758  2040.1721 
  2000.0000  2399.9391  2006.9810   1999.8430  2399.8605  2024.4676 
  2099.9391  2399.9391  2010.4709   2099.7820  2399.8605  2027.9576 
  2199.8782  2399.9391  2013.9609   2199.7211  2399.8605  2031.4475 
  2299.8172  2399.9391  2017.4508   2299.6602  2399.8605  2034.9375 
  2399.7563  2399.9391  2020.9408   2399.5993  2399.8605  2038.4274 
  2499.6954  2399.9391  2024.4307   2499.5384  2399.8605  2041.9174 
  2000.0000  2499.9238  2008.7262   1999.8430  2499.8453  2026.2129 
  2099.9391  2499.9238  2012.2162   2099.7820  2499.8453  2029.7028 
  2199.8782  2499.9238  2015.7061   2199.7211  2499.8453  2033.1928 
  2299.8172  2499.9238  2019.1961   2299.6602  2499.8453  2036.6827 
  2399.7563  2499.9238  2022.6860   2399.5993  2499.8453  2040.1727 
  2499.6954  2499.9238  2026.1760   2499.5384  2499.8453  2043.6626 
  2000.0000  2599.9086  2010.4714   1999.8430  2599.8301  2027.9581 
  2099.9391  2599.9086  2013.9614   2099.7820  2599.8301  2031.4481 
  2199.8782  2599.9086  2017.4513   2199.7211  2599.8301  2034.9380 
  2299.8172  2599.9086  2020.9413   2299.6602  2599.8301  2038.4280 
  2399.7563  2599.9086  2024.4312   2399.5993  2599.8301  2041.9179 
  2499.6954  2599.9086  2027.9212   2499.5384  2599.8301  2045.4079 
  2000.0000  2699.8934  2012.2167   1999.8430  2699.8149  2029.7034 
  2099.9391  2699.8934  2015.7066   2099.7820  2699.8149  2033.1933 
  2199.8782  2699.8934  2019.1966   2199.7211  2699.8149  2036.6833 
  2299.8172  2699.8934  2022.6865   2299.6602  2699.8149  2040.1732 
  2399.7563  2699.8934  2026.1765   2399.5993  2699.8149  2043.6632 
  2499.6954  2699.8934  2029.6664   2499.5384  2699.8149  2047.1531 
/ 

ZCORN
  2000.0000  2003.4899  2003.4899  2006.9799  2006.9799  2010.4698
  2010.4698  2013.9598  2013.9598  2017.4497  2001.7452  2005.2352
  2005.2352  2008.7251  2008.7251  2012.2151  2012.2151  2015.7050
  2015.7050  2019.1950  2001.7452  2005.2352  2005.2352  2008.7251
  2008.7251  2012.2151  2012.2151  2015.7050  2015.7050  2019.1950
  2003.4905  2006.9804  2006.9804  2010.4704  2010.4704  2013.9603
  2013.9603  2017.4503  2017.4503  2020.9402  2003.4905  2006.9804
  2006.9804  2010.4704  2010.4704  2013.9603  2013.9603  2017.4503
  2017.4503  2020.9402  2005.2357  2008.7257  2008.7257  2012.2156
  2012.2156  2015.7056  2015.7056  2019.1955  2019.1955  2022.6855
  2005.2357  2008.7257  2008.7257  2012.2156  2012.2156  2015.7056
  2015.7056  2019.1955  2019.1955  2022.6855  2006.9810  2010.4709
  2010.4709  2013.9609  2013.9609  2017.4508  2017.4508  2020.9408
  2020.9408  2024.4307  2006.9810  2010.4709  2010.4709  2013.9609
  2013.9609  2017.4508  2017.4508  2020.9408  2020.9408  2024.4307
  2008.7262  2012.2162  2012.2162  2015.7061  2015.7061  2019.1961
  2019.1961  2022.6860  2022.6860  2026.1760  2008.7262  2012.2162
  2012.2162  2015.7061  2015.7061  2019.1961  2019.1961  2022.6860
  2022.6860  2026.1760  2010.4714  2013.9614  2013.9614  2017.4513
  2017.4513  2020.9413  2020.9413  2024.4312  2024.4312  2027.9212
  2010.4714  2013.9614  2013.9614  2017.4513  2017.4513  2020.9413
  2020.9413  2024.4312  2024.4312  2027.9212  2012.2167  2015.7066
  2015.7066  2019.1966  2019.1966  2022.6865  2022.6865  2026.1765
  2026.1765  2029.6664  2002.4981  2005.9880  2005.9880  2009.4780
  2009.4780  2012.9679  2012.9679  2016.4579  2016.4579  2019.9478
  2004.2433  2007.7333  2007.7333  2011.2232  2011.2232  2014.7132
  2014.7132  2018.2031  2018.2031  2021.6931  2004.2433  2007.7333
  2007.7333  2011.2232  2011.2232  2014.7132  2014.7132  2018.2031
  2018.2031  2021.6931  2005.9886  2009.4785  2009.4785  2012.9685
  2012.9685  2016.4584  2016.4584  2019.9484  2019.9484  2023.4383
  2005.9886  2009.4785  2009.4785  2012.9685  2012.9685  2016.4584
  2016.4584  2019.9484  2019.9484  2023.4383  2007.7338  2011.2238
  2011.2238  2014.7137  2014.7137  2018.2037  2018.2037  2021.6936
  2021.6936  2025.1836  2007.7338  2011.2238  2011.2238  2014.7137
  2014.7137  2018.2037  2018.2037  2021.6936  2021.6936  2025.1836
  2009.4791  2012.9690  2012.9690  2016.4590  2016.4590  2019.9489
  2019.9489  2023.4389  2023.4389  2026.9288  2009.4791  2012.9690
  2012.9690  2016.4590  2016.4590  2019.9489  2019.9489  2023.4389
  2023.4389  2026.9288  2011.2243  2014.7142  2014.7142  2018.2042
  2018.2042  2021.6941  2021.6941  2025.1841  2025.1841  2028.6740
  2011.2243  2014.7142  2014.7142  2018.2042  2018.2042  2021.6941
  2021.6941  2025.1841  2025.1841  2028.6740  2012.9695  2016.4595
  2016.4595  2019.9494  2019.9494  2023.4394  2023.4394  2026.9293
  2026.9293  2030.4193  2012.9695  2016.4595  2016.4595  2019.9494
  2019.9494  2023.4394  2023.4394  2026.9293  2026.9293  2030.4193
  2014.7148  2018.2047  2018.2047  2021.6947  2021.6947  2025.1846
  2025.1846  2028.6746  2028.6746  2032.1645  2002.4981  2005.9880
  2005.9880  2009.4780  2009.4780  2012.9679  2012.9679  2016.4579
  2016.4579  2019.9478  2004.2433  2007.7333  2007.7333  2011.2232
  2011.2232  2014.7132  2014.7132  2018.2031  2018.2031  2021.6931
  2004.2433  2007.7333  2007.7333  2011.2232  2011.2232  2014.7132
  2014.7132  2018.2031  2018.2031  2021.6931  2005.9886  2009.4785
  2009.4785  2012.9685  2012.9685  2016.4584  2016.4584  2019.9484
  2019.9484  2023.4383  2005.9886  2009.4785  2009.4785  2012.9685
  2012.9685  2016.4584  2016.4584  2019.9484  2019.9484  2023.4383
  2007.7338  2011.2238  2011.2238  2014.7137  2014.7137  2018.2037
  2018.2037  2021.6936  2021.6936  2025.1836  2007.7338  2011.2238
  2011.2238  2014.7137  2014.7137  2018.2037  2018.2037  2021.6936
  2021.6936  2025.1836  2009.4791  2012.9690  2012.9690  2016.4590
  2016.4590  2019.9489  2019.9489  2023.4389  2023.4389  2026.9288
  2009.4791  2012.9690  2012.9690  2016.4590  2016.4590  2019.9489
  2019.9489  2023.4389  2023.4389  2026.9288  2011.2243  2014.7142
  2014.7142  2018.2042  2018.2042  2021.6941  2021.6941  2025.1841
  2025.1841  2028.6740  2011.2243  2014.7142  2014.7142  2018.2042
  2018.2042  2021.6941  2021.6941  2025.1841  2025.1841  2028.6740
  2012.9695  2016.4595  2016.4595  2019.9494  2019.9494  2023.4394
  2023.4394  2026.9293  2026.9293  2030.4193  2012.9695  2016.4595
  2016.4595  2019.9494  2019.9494  2023.4394  2023.4394  2026.9293
  2026.9293  2030.4193  2014.7148  2018.2047  2018.2047  2021.6947
  2021.6947  2025.1846  2025.1846  2028.6746  2028.6746  2032.1645
  2005.4958  2008.9858  2008.9858  2012.4757  2012.4757  2015.9657
  2015.9657  2019.4556  2019.4556  2022.9456  2007.2411  2010.7310
  2010.7310  2014.2210  2014.2210  2017.7109  2017.7109  2021.2009
  2021.2009  2024.6908  2007.2411  2010.7310  2010.7310  2014.2210
  2014.2210  2017.7109  2017.7109  2021.2009  2021.2009  2024.6908
  2008.9863  2012.4762  2012.4762  2015.9662  2015.9662  2019.4561
  2019.4561  2022.9461  2022.9461  2026.4360  2008.9863  2012.4762
  2012.4762  2015.9662  2015.9662  2019.4561  2019.4561  2022.9461
  2022.9461  2026.4360  2010.7315  2014.2215  2014.2215  2017.7114
  2017.7114  2021.2014  2021.2014  2024.6913  2024.6913  2028.1813
  2010.7315  2014.2215  2014.2215  2017.7114  2017.7114  2021.2014
  2021.2014  2024.6913  2024.6913  2028.1813  2012.4768  2015.9667
  2015.9667  2019.4567  2019.4567  2022.9466  2022.9466  2026.4366
  2026.4366  2029.9265  2012.4768  2015.9667  2015.9667  2019.4567
  2019.4567  2022.9466  2022.9466  2026.4366  2026.4366  2029.9265
  2014.2220  2017.7120  2017.7120  2021.2019  2021.2019  2024.6919
  2024.6919  2028.1818  2028.1818  2031.6718  2014.2220  2017.7120
  2017.7120  2021.2019  2021.2019  2024.6919  2024.6919  2028.1818
  2028.1818  2031.6718  2015.9673  2019.4572  2019.4572  2022.9472
  2022.9472  2026.4371  2026.4371  2029.9271  2029.9271  2033.4170
  2015.9673  2019.4572  2019.4572  2022.9472  2022.9472  2026.4371
  2026.4371  2029.9271  2029.9271  2033.4170  2017.7125  2021.2024
  2021.2024  2024.6924  2024.6924  2028.1823  2028.1823  2031.6723
  2031.6723  2035.1622  2005.4958  2008.9858  2008.9858  2012.4757
  2012.4757  2015.9657  2015.9657  2019.4556  2019.4556  2022.9456
  2007.2411  2010.7310  2010.7310  2014.2210  2014.2210  2017.7109
  2017.7109  2021.2009  2021.2009  2024.6908  2007.2411  2010.7310
  2010.7310  2014.2210  2014.2210  2017.7109  2017.7109  2021.2009
  2021.2009  2024.6908  2008.9863  2012.4762  2012.4762  2015.9662
  2015.9662  2019.4561  2019.4561  2022.9461  2022.9461  2026.4360
  2008.9863  2012.4762  2012.4762  2015.9662  2015.9662  2019.4561
  2019.4561  2022.9461  2022.9461  2026.4360  2010.7315  2014.2215
  2014.2215  2017.7114  2017.7114  2021.2014  2021.2014  2024.6913
  2024.6913  2028.1813  2010.7315  2014.2215  2014.2215  2017.7114
  2017.7114  2021.2014  2021.2014  2024.6913  2024.6913  2028.1813
  2012.4768  2015.9667  2015.9667  2019.4567  2019.4567  2022.9466
  2022.9466  2026.4366  2026.4366  2029.9265  2012.4768  2015.9667
  2015.9667  2019.4567  2019.4567  2022.9466  2022.9466  2026.4366
  2026.4366  2029.9265  2014.2220  2017.7120  2017.7120  2021.2019
  2021.2019  2024.6919  2024.6919  2028.1818  2028.1818  2031.6718
  2014.2220  2017.7120  2017.7120  2021.2019  2021.2019  2024.6919
  2024.6919  2028.1818  2028.1818  2031.6718  2015.9673  2019.4572
  2019.4572  2022.9472  2022.9472  2026.4371  2026.4371  2029.9271
  2029.9271  2033.4170  2015.9673  2019.4572  2019.4572  2022.9472
  2022.9472  2026.4371  2026.4371  2029.9271  2029.9271  2033.4170
  2017.7125  2021.2024  2021.2024  2024.6924  2024.6924  2028.1823
  2028.1823  2031.6723  2031.6723  2035.1622  2008.9931  2012.4831
  2012.4831  2015.9730  2015.9730  2019.4630  2019.4630  2022.9529
  2022.9529  2026.4429  2010.7384  2014.2283  2014.2283  2017.7183
  2017.7183  2021.2082  2021.2082  2024.6982  2024.6982  2028.1881
  2010.7384  2014.2283  2014.2283  2017.7183  2017.7183  2021.2082
  2021.2082  2024.6982  2024.6982  2028.1881  2012.4836  2015.9736
  2015.9736  2019.4635  2019.4635  2022.9535  2022.9535  2026.4434
  2026.4434  2029.9334  2012.4836  2015.9736  2015.9736  2019.4635
  2019.4635  2022.9535  2022.9535  2026.4434  2026.4434  2029.9334
  2014.2289  2017.7188  2017.7188  2021.2088  2021.2088  2024.6987
  2024.6987  2028.1887  2028.1887  2031.6786  2014.2289  2017.7188
  2017.7188  2021.2088  2021.2088  2024.6987  2024.6987  2028.1887
  2028.1887  2031.6786  2015.9741  2019.4641  2019.4641  2022.9540
  2022.9540  2026.4440  2026.4440  2029.9339  2029.9339  2033.4239
  2015.9741  2019.4641  2019.4641  2022.9540  2022.9540  2026.4440
  2026.4440  2029.9339  2029.9339  2033.4239  2017.7193  2021.2093
  2021.2093  2024.6992  2024.6992  2028.1892  2028.1892  2031.6791
  2031.6791  2035.1691  2017.7193  2021.2093  2021.2093  2024.6992
  2024.6992  2028.1892  2028.1892  2031.6791  2031.6791  2035.1691
  2019.4646  2022.9545  2022.9545  2026.4445  2026.4445  2029.9344
  2029.9344  2033.4244  2033.4244  2036.9143  2019.4646  2022.9545
  2022.9545  2026.4445  2026.4445  2029.9344  2029.9344  2033.4244
  2033.4244  2036.9143  2021.2098  2024.6998  2024.6998  2028.1897
  2028.1897  2031.6797  2031.6797  2035.1696  2035.1696  2038.6596
  2008.9931  2012.4831  2012.4831  2015.9730  2015.9730  2019.4630
  2019.4630  2022.9529  2022.9529  2026.4429  2010.7384  2014.2283
  2014.2283  2017.7183  2017.7183  2021.2082  2021.2082  2024.6982
  2024.6982  2028.1881  2010.7384  2014.2283  2014.2283  2017.7183
  2017.7183  2021.2082  2021.2082  2024.6982  2024.6982  2028.1881
  2012.4836  2015.9736  2015.9736  2019.4635  2019.4635  2022.9535
  2022.9535  2026.4434  2026.4434  2029.9334  2012.4836  2015.9736
  2015.9736  2019.4635  2019.4635  2022.9535  2022.9535  2026.4434
  2026.4434  2029.9334  2014.2289  2017.7188  2017.7188  2021.2088
  2021.2088  2024.6987  2024.6987  2028.1887  2028.1887  2031.6786
  2014.2289  2017.7188  2017.7188  2021.2088  2021.2088  2024.6987
  2024.6987  2028.1887  2028.1887  2031.6786  2015.9741  2019.4641
  2019.4641  2022.9540  2022.9540  2026.4440  2026.4440  2029.9339
  2029.9339  2033.4239  2015.9741  2019.4641  2019.4641  2022.9540
  2022.9540  2026.4440  2026.4440  2029.9339  2029.9339  2033.4239
  2017.7193  2021.2093  2021.2093  2024.6992  2024.6992  2028.1892
  2028.1892  2031.6791  2031.6791  2035.1691  2017.7193  2021.2093
  2021.2093  2024.6992  2024.6992  2028.1892  2028.1892  2031.6791
  2031.6791  2035.1691  2019.4646  2022.9545  2022.9545  2026.4445
  2026.4445  2029.9344  2029.9344  2033.4244  2033.4244  2036.9143
  2019.4646  2022.9545  2022.9545  2026.4445  2026.4445  2029.9344
  2029.9344  2033.4244  2033.4244  2036.9143  2021.2098  2024.6998
  2024.6998  2028.1897  2028.1897  2031.6797  2031.6797  2035.1696
  2035.1696  2038.6596  2012.9901  2016.4801  2016.4801  2019.9700
  2019.9700  2023.4599  2023.4599  2026.9499  2026.9499  2030.4398
  2014.7353  2018.2253  2018.2253  2021.7152  2021.7152  2025.2052
  2025.2052  2028.6951  2028.6951  2032.1851  2014.7353  2018.2253
  2018.2253  2021.7152  2021.7152  2025.2052  2025.2052  2028.6951
  2028.6951  2032.1851  2016.4806  2019.9705  2019.9705  2023.4605
  2023.4605  2026.9504  2026.9504  2030.4404  2030.4404  2033.9303
  2016.4806  2019.9705  2019.9705  2023.4605  2023.4605  2026.9504
  2026.9504  2030.4404  2030.4404  2033.9303  2018.2258  2021.7158
  2021.7158  2025.2057  2025.2057  2028.6957  2028.6957  2032.1856
  2032.1856  2035.6756  2018.2258  2021.7158  2021.7158  2025.2057
  2025.2057  2028.6957  2028.6957  2032.1856  2032.1856  2035.6756
  2019.9711  2023.4610  2023.4610  2026.9510  2026.9510  2030.4409
  2030.4409  2033.9309  2033.9309  2037.4208  2019.9711  2023.4610
  2023.4610  2026.9510  2026.9510  2030.4409  2030.4409  2033.9309
  2033.9309  2037.4208  2021.7163  2025.2063  2025.2063  2028.6962
  2028.6962  2032.1862  2032.1862  2035.6761  2035.6761  2039.1661
  2021.7163  2025.2063  2025.2063  2028.6962  2028.6962  2032.1862
  2032.1862  2035.6761  2035.6761  2039.1661  2023.4615  2026.9515
  2026.9515  2030.4414  2030.4414  2033.9314  2033.9314  2037.4213
  2037.4213  2040.9113  2023.4615  2026.9515  2026.9515  2030.4414
  2030.4414  2033.9314  2033.9314  2037.4213  2037.4213  2040.9113
  2025.2068  2028.6967  2028.6967  2032.1867  2032.1867  2035.6766
  2035.6766  2039.1666  2039.1666  2042.6565  2012.9901  2016.4801
  2016.4801  2019.9700  2019.9700  2023.4599  2023.4599  2026.9499
  2026.9499  2030.4398  2014.7353  2018.2253  2018.2253  2021.7152
  2021.7152  2025.2052  2025.2052  2028.6951  2028.6951  2032.1851
  2014.7353  2018.2253  2018.2253  2021.7152  2021.7152  2025.2052
  2025.2052  2028.6951  2028.6951  2032.1851  2016.4806  2019.9705
  2019.9705  2023.4605  2023.4605  2026.9504  2026.9504  2030.4404
  2030.4404  2033.9303  2016.4806  2019.9705  2019.9705  2023.4605
  2023.4605  2026.9504  2026.9504  2030.4404  2030.4404  2033.9303
  2018.2258  2021.7158  2021.7158  2025.2057  2025.2057  2028.6957
  2028.6957  2032.1856  2032.1856  2035.6756  2018.2258  2021.7158
  2021.7158  2025.2057  2025.2057  2028.6957  2028.6957  2032.1856
  2032.1856  2035.6756  2019.9711  2023.4610  2023.4610  2026.9510
  2026.9510  2030.4409  2030.4409  2033.9309  2033.9309  2037.4208
  2019.9711  2023.4610  2023.4610  2026.9510  2026.9510  2030.4409
  2030.4409  2033.9309  2033.9309  2037.4208  2021.7163  2025.2063
  2025.2063  2028.6962  2028.6962  2032.1862  2032.1862  2035.6761
  2035.6761  2039.1661  2021.7163  2025.2063  2025.2063  2028.6962
  2028.6962  2032.1862  2032.1862  2035.6761  2035.6761  2039.1661
  2023.4615  2026.9515  2026.9515  2030.4414  2030.4414  2033.9314
  2033.9314  2037.4213  2037.4213  2040.9113  2023.4615  2026.9515
  2026.9515  2030.4414  2030.4414  2033.9314  2033.9314  2037.4213
  2037.4213  2040.9113  2025.2068  2028.6967  2028.6967  2032.1867
  2032.1867  2035.6766  2035.6766  2039.1666  2039.1666  2042.6565
  2017.4867  2020.9766  2020.9766  2024.4666  2024.4666  2027.9565
  2027.9565  2031.4465  2031.4465  2034.9364  2019.2319  2022.7219
  2022.7219  2026.2118  2026.2118  2029.7018  2029.7018  2033.1917
  2033.1917  2036.6817  2019.2319  2022.7219  2022.7219  2026.2118
  2026.2118  2029.7018  2029.7018  2033.1917  2033.1917  2036.6817
  2020.9772  2024.4671  2024.4671  2027.9571  2027.9571  2031.4470
  2031.4470  2034.9370  2034.9370  2038.4269  2020.9772  2024.4671
  2024.4671  2027.9571  2027.9571  2031.4470  2031.4470  2034.9370
  2034.9370  2038.4269  2022.7224  2026.2123  2026.2123  2029.7023
  2029.7023  2033.1922  2033.1922  2036.6822  2036.6822  2040.1721
  2022.7224  2026.2123  2026.2123  2029.7023  2029.7023  2033.1922
  2033.1922  2036.6822  2036.6822  2040.1721  2024.4676  2027.9576
  2027.9576  2031.4475  2031.4475  2034.9375  2034.9375  2038.4274
  2038.4274  2041.9174  2024.4676  2027.9576  2027.9576  2031.4475
  2031.4475  2034.9375  2034.9375  2038.4274  2038.4274  2041.9174
  2026.2129  2029.7028  2029.7028  2033.1928  2033.1928  2036.6827
  2036.6827  2040.1727  2040.1727  2043.6626  2026.2129  2029.7028
  2029.7028  2033.1928  2033.1928  2036.6827  2036.6827  2040.1727
  2040.1727  2043.6626  2027.9581  2031.4481  2031.4481  2034.9380
  2034.9380  2038.4280  2038.4280  2041.9179  2041.9179  2045.4079
  2027.9581  2031.4481  2031.4481  2034.9380  2034.9380  2038.4280
  2038.4280  2041.9179  2041.9179  2045.4079  2029.7034  2033.1933
  2033.1933  2036.6833  2036.6833  2040.1732  2040.1732  2043.6632
  2043.6632  2047.1531 / 
