-- This reservoir simulation deck is made available under the Open Database
-- License: http://opendatacommons.org/licenses/odbl/1.0/. Any rights in
-- individual contents of the database are licensed under the Database Contents
-- License: http://opendatacommons.org/licenses/dbcl/1.0/
--  
-- Copyright (C) 2022 Equinor

GRIDUNIT
 FEET /

SPECGRID
 5 7 5 1 F / 

COORD
  6561.6800  6561.6800  6561.6800   6561.1648  6561.4223  6619.0510 
  6889.5641  6561.6800  6573.1300   6889.0489  6561.4223  6630.5009 
  7217.4483  6561.6800  6584.5799   7216.9330  6561.4223  6641.9509 
  7545.3324  6561.6800  6596.0299   7544.8172  6561.4223  6653.4009 
  7873.2166  6561.6800  6607.4799   7872.7013  6561.4223  6664.8508 
  8201.1007  6561.6800  6618.9298   8200.5855  6561.4223  6676.3008 
  6561.6800  6889.7140  6567.4059   6561.1648  6889.4564  6624.7768 
  6889.5641  6889.7140  6578.8558   6889.0489  6889.4564  6636.2268 
  7217.4483  6889.7140  6590.3058   7216.9330  6889.4564  6647.6768 
  7545.3324  6889.7140  6601.7558   7544.8172  6889.4564  6659.1267 
  7873.2166  6889.7140  6613.2057   7872.7013  6889.4564  6670.5767 
  8201.1007  6889.7140  6624.6557   8200.5855  6889.4564  6682.0267 
  6561.6800  7217.7481  6573.1317   6561.1648  7217.4904  6630.5027 
  6889.5641  7217.7481  6584.5817   6889.0489  7217.4904  6641.9527 
  7217.4483  7217.7481  6596.0316   7216.9330  7217.4904  6653.4026 
  7545.3324  7217.7481  6607.4816   7544.8172  7217.4904  6664.8526 
  7873.2166  7217.7481  6618.9316   7872.7013  7217.4904  6676.3026 
  8201.1007  7217.7481  6630.3815   8200.5855  7217.4904  6687.7525 
  6561.6800  7545.7821  6578.8576   6561.1648  7545.5244  6636.2285 
  6889.5641  7545.7821  6590.3075   6889.0489  7545.5244  6647.6785 
  7217.4483  7545.7821  6601.7575   7216.9330  7545.5244  6659.1285 
  7545.3324  7545.7821  6613.2075   7544.8172  7545.5244  6670.5784 
  7873.2166  7545.7821  6624.6574   7872.7013  7545.5244  6682.0284 
  8201.1007  7545.7821  6636.1074   8200.5855  7545.5244  6693.4784 
  6561.6800  7873.8161  6584.5834   6561.1648  7873.5585  6641.9544 
  6889.5641  7873.8161  6596.0334   6889.0489  7873.5585  6653.4044 
  7217.4483  7873.8161  6607.4834   7216.9330  7873.5585  6664.8543 
  7545.3324  7873.8161  6618.9333   7544.8172  7873.5585  6676.3043 
  7873.2166  7873.8161  6630.3833   7872.7013  7873.5585  6687.7543 
  8201.1007  7873.8161  6641.8333   8200.5855  7873.5585  6699.2042 
  6561.6800  8201.8502  6590.3093   6561.1648  8201.5925  6647.6803 
  6889.5641  8201.8502  6601.7592   6889.0489  8201.5925  6659.1302 
  7217.4483  8201.8502  6613.2092   7216.9330  8201.5925  6670.5802 
  7545.3324  8201.8502  6624.6592   7544.8172  8201.5925  6682.0302 
  7873.2166  8201.8502  6636.1091   7872.7013  8201.5925  6693.4801 
  8201.1007  8201.8502  6647.5591   8200.5855  8201.5925  6704.9301 
  6561.6800  8529.8842  6596.0351   6561.1648  8529.6265  6653.4061 
  6889.5641  8529.8842  6607.4851   6889.0489  8529.6265  6664.8561 
  7217.4483  8529.8842  6618.9351   7216.9330  8529.6265  6676.3060 
  7545.3324  8529.8842  6630.3850   7544.8172  8529.6265  6687.7560 
  7873.2166  8529.8842  6641.8350   7872.7013  8529.6265  6699.2060 
  8201.1007  8529.8842  6653.2850   8200.5855  8529.6265  6710.6559 
  6561.6800  8857.9182  6601.7610   6561.1648  8857.6606  6659.1320 
  6889.5641  8857.9182  6613.2110   6889.0489  8857.6606  6670.5819 
  7217.4483  8857.9182  6624.6609   7216.9330  8857.6606  6682.0319 
  7545.3324  8857.9182  6636.1109   7544.8172  8857.6606  6693.4819 
  7873.2166  8857.9182  6647.5609   7872.7013  8857.6606  6704.9318 
  8201.1007  8857.9182  6659.0108   8200.5855  8857.6606  6716.3818 
/ 

ZCORN
  6561.6800  6573.1300  6573.1300  6584.5799  6584.5799  6596.0299
  6596.0299  6607.4799  6607.4799  6618.9298  6567.4059  6578.8558
  6578.8558  6590.3058  6590.3058  6601.7558  6601.7558  6613.2057
  6613.2057  6624.6557  6567.4059  6578.8558  6578.8558  6590.3058
  6590.3058  6601.7558  6601.7558  6613.2057  6613.2057  6624.6557
  6573.1317  6584.5817  6584.5817  6596.0316  6596.0316  6607.4816
  6607.4816  6618.9316  6618.9316  6630.3815  6573.1317  6584.5817
  6584.5817  6596.0316  6596.0316  6607.4816  6607.4816  6618.9316
  6618.9316  6630.3815  6578.8576  6590.3075  6590.3075  6601.7575
  6601.7575  6613.2075  6613.2075  6624.6574  6624.6574  6636.1074
  6578.8576  6590.3075  6590.3075  6601.7575  6601.7575  6613.2075
  6613.2075  6624.6574  6624.6574  6636.1074  6584.5834  6596.0334
  6596.0334  6607.4834  6607.4834  6618.9333  6618.9333  6630.3833
  6630.3833  6641.8333  6584.5834  6596.0334  6596.0334  6607.4834
  6607.4834  6618.9333  6618.9333  6630.3833  6630.3833  6641.8333
  6590.3093  6601.7592  6601.7592  6613.2092  6613.2092  6624.6592
  6624.6592  6636.1091  6636.1091  6647.5591  6590.3093  6601.7592
  6601.7592  6613.2092  6613.2092  6624.6592  6624.6592  6636.1091
  6636.1091  6647.5591  6596.0351  6607.4851  6607.4851  6618.9351
  6618.9351  6630.3850  6630.3850  6641.8350  6641.8350  6653.2850
  6596.0351  6607.4851  6607.4851  6618.9351  6618.9351  6630.3850
  6630.3850  6641.8350  6641.8350  6653.2850  6601.7610  6613.2110
  6613.2110  6624.6609  6624.6609  6636.1109  6636.1109  6647.5609
  6647.5609  6659.0108  6569.8759  6581.3258  6581.3258  6592.7758
  6592.7758  6604.2258  6604.2258  6615.6757  6615.6757  6627.1257
  6575.6017  6587.0517  6587.0517  6598.5016  6598.5016  6609.9516
  6609.9516  6621.4016  6621.4016  6632.8515  6575.6017  6587.0517
  6587.0517  6598.5016  6598.5016  6609.9516  6609.9516  6621.4016
  6621.4016  6632.8515  6581.3276  6592.7775  6592.7775  6604.2275
  6604.2275  6615.6775  6615.6775  6627.1274  6627.1274  6638.5774
  6581.3276  6592.7775  6592.7775  6604.2275  6604.2275  6615.6775
  6615.6775  6627.1274  6627.1274  6638.5774  6587.0534  6598.5034
  6598.5034  6609.9534  6609.9534  6621.4033  6621.4033  6632.8533
  6632.8533  6644.3033  6587.0534  6598.5034  6598.5034  6609.9534
  6609.9534  6621.4033  6621.4033  6632.8533  6632.8533  6644.3033
  6592.7793  6604.2292  6604.2292  6615.6792  6615.6792  6627.1292
  6627.1292  6638.5791  6638.5791  6650.0291  6592.7793  6604.2292
  6604.2292  6615.6792  6615.6792  6627.1292  6627.1292  6638.5791
  6638.5791  6650.0291  6598.5051  6609.9551  6609.9551  6621.4051
  6621.4051  6632.8550  6632.8550  6644.3050  6644.3050  6655.7550
  6598.5051  6609.9551  6609.9551  6621.4051  6621.4051  6632.8550
  6632.8550  6644.3050  6644.3050  6655.7550  6604.2310  6615.6810
  6615.6810  6627.1309  6627.1309  6638.5809  6638.5809  6650.0309
  6650.0309  6661.4808  6604.2310  6615.6810  6615.6810  6627.1309
  6627.1309  6638.5809  6638.5809  6650.0309  6650.0309  6661.4808
  6609.9568  6621.4068  6621.4068  6632.8568  6632.8568  6644.3067
  6644.3067  6655.7567  6655.7567  6667.2067  6569.8759  6581.3258
  6581.3258  6592.7758  6592.7758  6604.2258  6604.2258  6615.6757
  6615.6757  6627.1257  6575.6017  6587.0517  6587.0517  6598.5016
  6598.5016  6609.9516  6609.9516  6621.4016  6621.4016  6632.8515
  6575.6017  6587.0517  6587.0517  6598.5016  6598.5016  6609.9516
  6609.9516  6621.4016  6621.4016  6632.8515  6581.3276  6592.7775
  6592.7775  6604.2275  6604.2275  6615.6775  6615.6775  6627.1274
  6627.1274  6638.5774  6581.3276  6592.7775  6592.7775  6604.2275
  6604.2275  6615.6775  6615.6775  6627.1274  6627.1274  6638.5774
  6587.0534  6598.5034  6598.5034  6609.9534  6609.9534  6621.4033
  6621.4033  6632.8533  6632.8533  6644.3033  6587.0534  6598.5034
  6598.5034  6609.9534  6609.9534  6621.4033  6621.4033  6632.8533
  6632.8533  6644.3033  6592.7793  6604.2292  6604.2292  6615.6792
  6615.6792  6627.1292  6627.1292  6638.5791  6638.5791  6650.0291
  6592.7793  6604.2292  6604.2292  6615.6792  6615.6792  6627.1292
  6627.1292  6638.5791  6638.5791  6650.0291  6598.5051  6609.9551
  6609.9551  6621.4051  6621.4051  6632.8550  6632.8550  6644.3050
  6644.3050  6655.7550  6598.5051  6609.9551  6609.9551  6621.4051
  6621.4051  6632.8550  6632.8550  6644.3050  6644.3050  6655.7550
  6604.2310  6615.6810  6615.6810  6627.1309  6627.1309  6638.5809
  6638.5809  6650.0309  6650.0309  6661.4808  6604.2310  6615.6810
  6615.6810  6627.1309  6627.1309  6638.5809  6638.5809  6650.0309
  6650.0309  6661.4808  6609.9568  6621.4068  6621.4068  6632.8568
  6632.8568  6644.3067  6644.3067  6655.7567  6655.7567  6667.2067
  6579.7109  6591.1608  6591.1608  6602.6108  6602.6108  6614.0608
  6614.0608  6625.5107  6625.5107  6636.9607  6585.4367  6596.8867
  6596.8867  6608.3367  6608.3367  6619.7866  6619.7866  6631.2366
  6631.2366  6642.6866  6585.4367  6596.8867  6596.8867  6608.3367
  6608.3367  6619.7866  6619.7866  6631.2366  6631.2366  6642.6866
  6591.1626  6602.6126  6602.6126  6614.0625  6614.0625  6625.5125
  6625.5125  6636.9625  6636.9625  6648.4124  6591.1626  6602.6126
  6602.6126  6614.0625  6614.0625  6625.5125  6625.5125  6636.9625
  6636.9625  6648.4124  6596.8884  6608.3384  6608.3384  6619.7884
  6619.7884  6631.2383  6631.2383  6642.6883  6642.6883  6654.1383
  6596.8884  6608.3384  6608.3384  6619.7884  6619.7884  6631.2383
  6631.2383  6642.6883  6642.6883  6654.1383  6602.6143  6614.0643
  6614.0643  6625.5142  6625.5142  6636.9642  6636.9642  6648.4142
  6648.4142  6659.8641  6602.6143  6614.0643  6614.0643  6625.5142
  6625.5142  6636.9642  6636.9642  6648.4142  6648.4142  6659.8641
  6608.3402  6619.7901  6619.7901  6631.2401  6631.2401  6642.6901
  6642.6901  6654.1400  6654.1400  6665.5900  6608.3402  6619.7901
  6619.7901  6631.2401  6631.2401  6642.6901  6642.6901  6654.1400
  6654.1400  6665.5900  6614.0660  6625.5160  6625.5160  6636.9659
  6636.9659  6648.4159  6648.4159  6659.8659  6659.8659  6671.3158
  6614.0660  6625.5160  6625.5160  6636.9659  6636.9659  6648.4159
  6648.4159  6659.8659  6659.8659  6671.3158  6619.7919  6631.2418
  6631.2418  6642.6918  6642.6918  6654.1418  6654.1418  6665.5917
  6665.5917  6677.0417  6579.7109  6591.1608  6591.1608  6602.6108
  6602.6108  6614.0608  6614.0608  6625.5107  6625.5107  6636.9607
  6585.4367  6596.8867  6596.8867  6608.3367  6608.3367  6619.7866
  6619.7866  6631.2366  6631.2366  6642.6866  6585.4367  6596.8867
  6596.8867  6608.3367  6608.3367  6619.7866  6619.7866  6631.2366
  6631.2366  6642.6866  6591.1626  6602.6126  6602.6126  6614.0625
  6614.0625  6625.5125  6625.5125  6636.9625  6636.9625  6648.4124
  6591.1626  6602.6126  6602.6126  6614.0625  6614.0625  6625.5125
  6625.5125  6636.9625  6636.9625  6648.4124  6596.8884  6608.3384
  6608.3384  6619.7884  6619.7884  6631.2383  6631.2383  6642.6883
  6642.6883  6654.1383  6596.8884  6608.3384  6608.3384  6619.7884
  6619.7884  6631.2383  6631.2383  6642.6883  6642.6883  6654.1383
  6602.6143  6614.0643  6614.0643  6625.5142  6625.5142  6636.9642
  6636.9642  6648.4142  6648.4142  6659.8641  6602.6143  6614.0643
  6614.0643  6625.5142  6625.5142  6636.9642  6636.9642  6648.4142
  6648.4142  6659.8641  6608.3402  6619.7901  6619.7901  6631.2401
  6631.2401  6642.6901  6642.6901  6654.1400  6654.1400  6665.5900
  6608.3402  6619.7901  6619.7901  6631.2401  6631.2401  6642.6901
  6642.6901  6654.1400  6654.1400  6665.5900  6614.0660  6625.5160
  6625.5160  6636.9659  6636.9659  6648.4159  6648.4159  6659.8659
  6659.8659  6671.3158  6614.0660  6625.5160  6625.5160  6636.9659
  6636.9659  6648.4159  6648.4159  6659.8659  6659.8659  6671.3158
  6619.7919  6631.2418  6631.2418  6642.6918  6642.6918  6654.1418
  6654.1418  6665.5917  6665.5917  6677.0417  6591.1851  6602.6350
  6602.6350  6614.0850  6614.0850  6625.5350  6625.5350  6636.9849
  6636.9849  6648.4349  6596.9109  6608.3609  6608.3609  6619.8109
  6619.8109  6631.2608  6631.2608  6642.7108  6642.7108  6654.1608
  6596.9109  6608.3609  6608.3609  6619.8109  6619.8109  6631.2608
  6631.2608  6642.7108  6642.7108  6654.1608  6602.6368  6614.0868
  6614.0868  6625.5367  6625.5367  6636.9867  6636.9867  6648.4367
  6648.4367  6659.8866  6602.6368  6614.0868  6614.0868  6625.5367
  6625.5367  6636.9867  6636.9867  6648.4367  6648.4367  6659.8866
  6608.3626  6619.8126  6619.8126  6631.2626  6631.2626  6642.7125
  6642.7125  6654.1625  6654.1625  6665.6125  6608.3626  6619.8126
  6619.8126  6631.2626  6631.2626  6642.7125  6642.7125  6654.1625
  6654.1625  6665.6125  6614.0885  6625.5385  6625.5385  6636.9884
  6636.9884  6648.4384  6648.4384  6659.8884  6659.8884  6671.3383
  6614.0885  6625.5385  6625.5385  6636.9884  6636.9884  6648.4384
  6648.4384  6659.8884  6659.8884  6671.3383  6619.8144  6631.2643
  6631.2643  6642.7143  6642.7143  6654.1643  6654.1643  6665.6142
  6665.6142  6677.0642  6619.8144  6631.2643  6631.2643  6642.7143
  6642.7143  6654.1643  6654.1643  6665.6142  6665.6142  6677.0642
  6625.5402  6636.9902  6636.9902  6648.4401  6648.4401  6659.8901
  6659.8901  6671.3401  6671.3401  6682.7900  6625.5402  6636.9902
  6636.9902  6648.4401  6648.4401  6659.8901  6659.8901  6671.3401
  6671.3401  6682.7900  6631.2661  6642.7160  6642.7160  6654.1660
  6654.1660  6665.6160  6665.6160  6677.0659  6677.0659  6688.5159
  6591.1851  6602.6350  6602.6350  6614.0850  6614.0850  6625.5350
  6625.5350  6636.9849  6636.9849  6648.4349  6596.9109  6608.3609
  6608.3609  6619.8109  6619.8109  6631.2608  6631.2608  6642.7108
  6642.7108  6654.1608  6596.9109  6608.3609  6608.3609  6619.8109
  6619.8109  6631.2608  6631.2608  6642.7108  6642.7108  6654.1608
  6602.6368  6614.0868  6614.0868  6625.5367  6625.5367  6636.9867
  6636.9867  6648.4367  6648.4367  6659.8866  6602.6368  6614.0868
  6614.0868  6625.5367  6625.5367  6636.9867  6636.9867  6648.4367
  6648.4367  6659.8866  6608.3626  6619.8126  6619.8126  6631.2626
  6631.2626  6642.7125  6642.7125  6654.1625  6654.1625  6665.6125
  6608.3626  6619.8126  6619.8126  6631.2626  6631.2626  6642.7125
  6642.7125  6654.1625  6654.1625  6665.6125  6614.0885  6625.5385
  6625.5385  6636.9884  6636.9884  6648.4384  6648.4384  6659.8884
  6659.8884  6671.3383  6614.0885  6625.5385  6625.5385  6636.9884
  6636.9884  6648.4384  6648.4384  6659.8884  6659.8884  6671.3383
  6619.8144  6631.2643  6631.2643  6642.7143  6642.7143  6654.1643
  6654.1643  6665.6142  6665.6142  6677.0642  6619.8144  6631.2643
  6631.2643  6642.7143  6642.7143  6654.1643  6654.1643  6665.6142
  6665.6142  6677.0642  6625.5402  6636.9902  6636.9902  6648.4401
  6648.4401  6659.8901  6659.8901  6671.3401  6671.3401  6682.7900
  6625.5402  6636.9902  6636.9902  6648.4401  6648.4401  6659.8901
  6659.8901  6671.3401  6671.3401  6682.7900  6631.2661  6642.7160
  6642.7160  6654.1660  6654.1660  6665.6160  6665.6160  6677.0659
  6677.0659  6688.5159  6604.2984  6615.7484  6615.7484  6627.1984
  6627.1984  6638.6483  6638.6483  6650.0983  6650.0983  6661.5483
  6610.0243  6621.4743  6621.4743  6632.9242  6632.9242  6644.3742
  6644.3742  6655.8242  6655.8242  6667.2741  6610.0243  6621.4743
  6621.4743  6632.9242  6632.9242  6644.3742  6644.3742  6655.8242
  6655.8242  6667.2741  6615.7502  6627.2001  6627.2001  6638.6501
  6638.6501  6650.1001  6650.1001  6661.5500  6661.5500  6673.0000
  6615.7502  6627.2001  6627.2001  6638.6501  6638.6501  6650.1001
  6650.1001  6661.5500  6661.5500  6673.0000  6621.4760  6632.9260
  6632.9260  6644.3759  6644.3759  6655.8259  6655.8259  6667.2759
  6667.2759  6678.7258  6621.4760  6632.9260  6632.9260  6644.3759
  6644.3759  6655.8259  6655.8259  6667.2759  6667.2759  6678.7258
  6627.2019  6638.6518  6638.6518  6650.1018  6650.1018  6661.5518
  6661.5518  6673.0017  6673.0017  6684.4517  6627.2019  6638.6518
  6638.6518  6650.1018  6650.1018  6661.5518  6661.5518  6673.0017
  6673.0017  6684.4517  6632.9277  6644.3777  6644.3777  6655.8277
  6655.8277  6667.2776  6667.2776  6678.7276  6678.7276  6690.1776
  6632.9277  6644.3777  6644.3777  6655.8277  6655.8277  6667.2776
  6667.2776  6678.7276  6678.7276  6690.1776  6638.6536  6650.1035
  6650.1035  6661.5535  6661.5535  6673.0035  6673.0035  6684.4534
  6684.4534  6695.9034  6638.6536  6650.1035  6650.1035  6661.5535
  6661.5535  6673.0035  6673.0035  6684.4534  6684.4534  6695.9034
  6644.3794  6655.8294  6655.8294  6667.2794  6667.2794  6678.7293
  6678.7293  6690.1793  6690.1793  6701.6293  6604.2984  6615.7484
  6615.7484  6627.1984  6627.1984  6638.6483  6638.6483  6650.0983
  6650.0983  6661.5483  6610.0243  6621.4743  6621.4743  6632.9242
  6632.9242  6644.3742  6644.3742  6655.8242  6655.8242  6667.2741
  6610.0243  6621.4743  6621.4743  6632.9242  6632.9242  6644.3742
  6644.3742  6655.8242  6655.8242  6667.2741  6615.7502  6627.2001
  6627.2001  6638.6501  6638.6501  6650.1001  6650.1001  6661.5500
  6661.5500  6673.0000  6615.7502  6627.2001  6627.2001  6638.6501
  6638.6501  6650.1001  6650.1001  6661.5500  6661.5500  6673.0000
  6621.4760  6632.9260  6632.9260  6644.3759  6644.3759  6655.8259
  6655.8259  6667.2759  6667.2759  6678.7258  6621.4760  6632.9260
  6632.9260  6644.3759  6644.3759  6655.8259  6655.8259  6667.2759
  6667.2759  6678.7258  6627.2019  6638.6518  6638.6518  6650.1018
  6650.1018  6661.5518  6661.5518  6673.0017  6673.0017  6684.4517
  6627.2019  6638.6518  6638.6518  6650.1018  6650.1018  6661.5518
  6661.5518  6673.0017  6673.0017  6684.4517  6632.9277  6644.3777
  6644.3777  6655.8277  6655.8277  6667.2776  6667.2776  6678.7276
  6678.7276  6690.1776  6632.9277  6644.3777  6644.3777  6655.8277
  6655.8277  6667.2776  6667.2776  6678.7276  6678.7276  6690.1776
  6638.6536  6650.1035  6650.1035  6661.5535  6661.5535  6673.0035
  6673.0035  6684.4534  6684.4534  6695.9034  6638.6536  6650.1035
  6650.1035  6661.5535  6661.5535  6673.0035  6673.0035  6684.4534
  6684.4534  6695.9034  6644.3794  6655.8294  6655.8294  6667.2794
  6667.2794  6678.7293  6678.7293  6690.1793  6690.1793  6701.6293
  6619.0510  6630.5009  6630.5009  6641.9509  6641.9509  6653.4009
  6653.4009  6664.8508  6664.8508  6676.3008  6624.7768  6636.2268
  6636.2268  6647.6768  6647.6768  6659.1267  6659.1267  6670.5767
  6670.5767  6682.0267  6624.7768  6636.2268  6636.2268  6647.6768
  6647.6768  6659.1267  6659.1267  6670.5767  6670.5767  6682.0267
  6630.5027  6641.9527  6641.9527  6653.4026  6653.4026  6664.8526
  6664.8526  6676.3026  6676.3026  6687.7525  6630.5027  6641.9527
  6641.9527  6653.4026  6653.4026  6664.8526  6664.8526  6676.3026
  6676.3026  6687.7525  6636.2285  6647.6785  6647.6785  6659.1285
  6659.1285  6670.5784  6670.5784  6682.0284  6682.0284  6693.4784
  6636.2285  6647.6785  6647.6785  6659.1285  6659.1285  6670.5784
  6670.5784  6682.0284  6682.0284  6693.4784  6641.9544  6653.4044
  6653.4044  6664.8543  6664.8543  6676.3043  6676.3043  6687.7543
  6687.7543  6699.2042  6641.9544  6653.4044  6653.4044  6664.8543
  6664.8543  6676.3043  6676.3043  6687.7543  6687.7543  6699.2042
  6647.6803  6659.1302  6659.1302  6670.5802  6670.5802  6682.0302
  6682.0302  6693.4801  6693.4801  6704.9301  6647.6803  6659.1302
  6659.1302  6670.5802  6670.5802  6682.0302  6682.0302  6693.4801
  6693.4801  6704.9301  6653.4061  6664.8561  6664.8561  6676.3060
  6676.3060  6687.7560  6687.7560  6699.2060  6699.2060  6710.6559
  6653.4061  6664.8561  6664.8561  6676.3060  6676.3060  6687.7560
  6687.7560  6699.2060  6699.2060  6710.6559  6659.1320  6670.5819
  6670.5819  6682.0319  6682.0319  6693.4819  6693.4819  6704.9318
  6704.9318  6716.3818 / 
