-- This reservoir simulation deck is made available under the Open Database
-- License: http://opendatacommons.org/licenses/odbl/1.0/. Any rights in
-- individual contents of the database are licensed under the Database Contents
-- License: http://opendatacommons.org/licenses/dbcl/1.0/

-- Copyright (C) 2023 Equinor


SPECGRID
 1 15 1 1 F / 

COORD
  2000.0000  2000.0000  2000.0000   2000.0000  2000.0000  2003.5000 
  2100.0000  2000.0000  2000.0000   2100.0000  2000.0000  2003.5000 
  2000.0000  2100.0000  2000.0000   2000.0000  2100.0000  2003.5000 
  2100.0000  2100.0000  2000.0000   2100.0000  2100.0000  2003.5000 
  2000.0000  2200.0000  2000.0000   2000.0000  2200.0000  2003.5000 
  2100.0000  2200.0000  2000.0000   2100.0000  2200.0000  2003.5000 
  2000.0000  2300.0000  2000.0000   2000.0000  2300.0000  2003.5000 
  2100.0000  2300.0000  2000.0000   2100.0000  2300.0000  2003.5000 
  2000.0000  2400.0000  2000.0000   2000.0000  2400.0000  2003.5000 
  2100.0000  2400.0000  2000.0000   2100.0000  2400.0000  2003.5000 
  2000.0000  2500.0000  2000.0000   2000.0000  2500.0000  2003.5000 
  2100.0000  2500.0000  2000.0000   2100.0000  2500.0000  2003.5000 
  2000.0000  2600.0000  2000.0000   2000.0000  2600.0000  2003.5000 
  2100.0000  2600.0000  2000.0000   2100.0000  2600.0000  2003.5000 
  2000.0000  2700.0000  2000.0000   2000.0000  2700.0000  2003.5000 
  2100.0000  2700.0000  2000.0000   2100.0000  2700.0000  2003.5000 
  2000.0000  2800.0000  2000.0000   2000.0000  2800.0000  2003.5000 
  2100.0000  2800.0000  2000.0000   2100.0000  2800.0000  2003.5000 
  2000.0000  2900.0000  2000.0000   2000.0000  2900.0000  2003.5000 
  2100.0000  2900.0000  2000.0000   2100.0000  2900.0000  2003.5000 
  2000.0000  3000.0000  2000.0000   2000.0000  3000.0000  2003.5000 
  2100.0000  3000.0000  2000.0000   2100.0000  3000.0000  2003.5000 
  2000.0000  3100.0000  2000.0000   2000.0000  3100.0000  2003.5000 
  2100.0000  3100.0000  2000.0000   2100.0000  3100.0000  2003.5000 
  2000.0000  3200.0000  2000.0000   2000.0000  3200.0000  2003.5000 
  2100.0000  3200.0000  2000.0000   2100.0000  3200.0000  2003.5000 
  2000.0000  3300.0000  2000.0000   2000.0000  3300.0000  2003.5000 
  2100.0000  3300.0000  2000.0000   2100.0000  3300.0000  2003.5000 
  2000.0000  3400.0000  2000.0000   2000.0000  3400.0000  2003.5000 
  2100.0000  3400.0000  2000.0000   2100.0000  3400.0000  2003.5000 
  2000.0000  3500.0000  2000.0000   2000.0000  3500.0000  2003.5000 
  2100.0000  3500.0000  2000.0000   2100.0000  3500.0000  2003.5000 
/ 

ZCORN
  2000.0000  2000.0000  2000.0000  2000.0000  2000.0000  2000.0000
  2000.0000  2000.0000  2000.0000  2000.0000  2000.0000  2000.0000
  2000.0000  2000.0000  2000.0000  2000.0000  2000.0000  2000.0000
  2000.0000  2000.0000  2000.0000  2000.0000  2000.0000  2000.0000
  2000.0000  2000.0000  2000.0000  2000.0000  2000.0000  2000.0000
  2000.0000  2000.0000  2000.0000  2000.0000  2000.0000  2000.0000
  2000.0000  2000.0000  2000.0000  2000.0000  2000.0000  2000.0000
  2000.0000  2000.0000  2000.0000  2000.0000  2000.0000  2000.0000
  2000.0000  2000.0000  2000.0000  2000.0000  2000.0000  2000.0000
  2000.0000  2000.0000  2000.0000  2000.0000  2000.0000  2000.0000
  2003.5000  2003.5000  2003.5000  2003.5000  2003.5000  2003.5000
  2003.5000  2003.5000  2003.5000  2003.5000  2003.5000  2003.5000
  2003.5000  2003.5000  2003.5000  2003.5000  2003.5000  2003.5000
  2003.5000  2003.5000  2003.5000  2003.5000  2003.5000  2003.5000
  2003.5000  2003.5000  2003.5000  2003.5000  2003.5000  2003.5000
  2003.5000  2003.5000  2003.5000  2003.5000  2003.5000  2003.5000
  2003.5000  2003.5000  2003.5000  2003.5000  2003.5000  2003.5000
  2003.5000  2003.5000  2003.5000  2003.5000  2003.5000  2003.5000
  2003.5000  2003.5000  2003.5000  2003.5000  2003.5000  2003.5000
  2003.5000  2003.5000  2003.5000  2003.5000  2003.5000  2003.5000
 / 
