SPECGRID
 12 3 8 1 F / 

COORD
  2000.0000  2000.0000  2000.0000   1999.4765  2000.0000  2119.9269 
  2099.9391  2000.0000  2003.4899   2099.4156  2000.0000  2123.4168 
  2199.8782  2000.0000  2006.9799   2199.3547  2000.0000  2126.9068 
  2299.8172  2000.0000  2010.4698   2299.2938  2000.0000  2130.3967 
  2399.7563  2000.0000  2013.9598   2399.2328  2000.0000  2133.8867 
  2499.6954  2000.0000  2017.4497   2499.1719  2000.0000  2137.3766 
  2599.6345  2000.0000  2020.9397   2599.1110  2000.0000  2140.8666 
  2699.5736  2000.0000  2024.4296   2699.0501  2000.0000  2144.3565 
  2799.5127  2000.0000  2027.9196   2798.9892  2000.0000  2147.8465 
  2899.4517  2000.0000  2031.4095   2898.9283  2000.0000  2151.3364 
  2999.3908  2000.0000  2034.8995   2998.8673  2000.0000  2154.8264 
  3099.3299  2000.0000  2038.3894   3098.8064  2000.0000  2158.3163 
  3199.2690  2000.0000  2041.8794   3198.7455  2000.0000  2161.8063 
  2000.0000  2100.0000  2000.0000   1999.4765  2100.0000  2119.9269 
  2099.9391  2100.0000  2003.4899   2099.4156  2100.0000  2123.4168 
  2199.8782  2100.0000  2006.9799   2199.3547  2100.0000  2126.9068 
  2299.8172  2100.0000  2010.4698   2299.2938  2100.0000  2130.3967 
  2399.7563  2100.0000  2013.9598   2399.2328  2100.0000  2133.8867 
  2499.6954  2100.0000  2017.4497   2499.1719  2100.0000  2137.3766 
  2599.6345  2100.0000  2020.9397   2599.1110  2100.0000  2140.8666 
  2699.5736  2100.0000  2024.4296   2699.0501  2100.0000  2144.3565 
  2799.5127  2100.0000  2027.9196   2798.9892  2100.0000  2147.8465 
  2899.4517  2100.0000  2031.4095   2898.9283  2100.0000  2151.3364 
  2999.3908  2100.0000  2034.8995   2998.8673  2100.0000  2154.8264 
  3099.3299  2100.0000  2038.3894   3098.8064  2100.0000  2158.3163 
  3199.2690  2100.0000  2041.8794   3198.7455  2100.0000  2161.8063 
  2000.0000  2200.0000  2000.0000   1999.4765  2200.0000  2119.9269 
  2099.9391  2200.0000  2003.4899   2099.4156  2200.0000  2123.4168 
  2199.8782  2200.0000  2006.9799   2199.3547  2200.0000  2126.9068 
  2299.8172  2200.0000  2010.4698   2299.2938  2200.0000  2130.3967 
  2399.7563  2200.0000  2013.9598   2399.2328  2200.0000  2133.8867 
  2499.6954  2200.0000  2017.4497   2499.1719  2200.0000  2137.3766 
  2599.6345  2200.0000  2020.9397   2599.1110  2200.0000  2140.8666 
  2699.5736  2200.0000  2024.4296   2699.0501  2200.0000  2144.3565 
  2799.5127  2200.0000  2027.9196   2798.9892  2200.0000  2147.8465 
  2899.4517  2200.0000  2031.4095   2898.9283  2200.0000  2151.3364 
  2999.3908  2200.0000  2034.8995   2998.8673  2200.0000  2154.8264 
  3099.3299  2200.0000  2038.3894   3098.8064  2200.0000  2158.3163 
  3199.2690  2200.0000  2041.8794   3198.7455  2200.0000  2161.8063 
  2000.0000  2300.0000  2000.0000   1999.4765  2300.0000  2119.9269 
  2099.9391  2300.0000  2003.4899   2099.4156  2300.0000  2123.4168 
  2199.8782  2300.0000  2006.9799   2199.3547  2300.0000  2126.9068 
  2299.8172  2300.0000  2010.4698   2299.2938  2300.0000  2130.3967 
  2399.7563  2300.0000  2013.9598   2399.2328  2300.0000  2133.8867 
  2499.6954  2300.0000  2017.4497   2499.1719  2300.0000  2137.3766 
  2599.6345  2300.0000  2020.9397   2599.1110  2300.0000  2140.8666 
  2699.5736  2300.0000  2024.4296   2699.0501  2300.0000  2144.3565 
  2799.5127  2300.0000  2027.9196   2798.9892  2300.0000  2147.8465 
  2899.4517  2300.0000  2031.4095   2898.9283  2300.0000  2151.3364 
  2999.3908  2300.0000  2034.8995   2998.8673  2300.0000  2154.8264 
  3099.3299  2300.0000  2038.3894   3098.8064  2300.0000  2158.3163 
  3199.2690  2300.0000  2041.8794   3198.7455  2300.0000  2161.8063 
/ 

ZCORN
  2000.0000  2003.4899  2003.4899  2006.9799  2006.9799  2010.4698
  2010.4698  2013.9598  2013.9598  2017.4497  2017.4497  2020.9397
  2020.9397  2024.4296  2024.4296  2027.9196  2027.9196  2031.4095
  2031.4095  2034.8995  2034.8995  2038.3894  2038.3894  2041.8794
  2000.0000  2003.4899  2003.4899  2006.9799  2006.9799  2010.4698
  2010.4698  2013.9598  2013.9598  2017.4497  2017.4497  2020.9397
  2020.9397  2024.4296  2024.4296  2027.9196  2027.9196  2031.4095
  2031.4095  2034.8995  2034.8995  2038.3894  2038.3894  2041.8794
  2000.0000  2003.4899  2003.4899  2006.9799  2006.9799  2010.4698
  2010.4698  2013.9598  2013.9598  2017.4497  2017.4497  2020.9397
  2020.9397  2024.4296  2024.4296  2027.9196  2027.9196  2031.4095
  2031.4095  2034.8995  2034.8995  2038.3894  2038.3894  2041.8794
  2000.0000  2003.4899  2003.4899  2006.9799  2006.9799  2010.4698
  2010.4698  2013.9598  2013.9598  2017.4497  2017.4497  2020.9397
  2020.9397  2024.4296  2024.4296  2027.9196  2027.9196  2031.4095
  2031.4095  2034.8995  2034.8995  2038.3894  2038.3894  2041.8794
  2000.0000  2003.4899  2003.4899  2006.9799  2006.9799  2010.4698
  2010.4698  2013.9598  2013.9598  2017.4497  2017.4497  2020.9397
  2020.9397  2024.4296  2024.4296  2027.9196  2027.9196  2031.4095
  2031.4095  2034.8995  2034.8995  2038.3894  2038.3894  2041.8794
  2000.0000  2003.4899  2003.4899  2006.9799  2006.9799  2010.4698
  2010.4698  2013.9598  2013.9598  2017.4497  2017.4497  2020.9397
  2020.9397  2024.4296  2024.4296  2027.9196  2027.9196  2031.4095
  2031.4095  2034.8995  2034.8995  2038.3894  2038.3894  2041.8794
  2014.9909  2018.4808  2018.4808  2021.9708  2021.9708  2025.4607
  2025.4607  2028.9507  2028.9507  2032.4406  2032.4406  2035.9306
  2035.9306  2039.4205  2039.4205  2042.9105  2042.9105  2046.4004
  2046.4004  2049.8904  2049.8904  2053.3803  2053.3803  2056.8703
  2014.9909  2018.4808  2018.4808  2021.9708  2021.9708  2025.4607
  2025.4607  2028.9507  2028.9507  2032.4406  2032.4406  2035.9306
  2035.9306  2039.4205  2039.4205  2042.9105  2042.9105  2046.4004
  2046.4004  2049.8904  2049.8904  2053.3803  2053.3803  2056.8703
  2014.9909  2018.4808  2018.4808  2021.9708  2021.9708  2025.4607
  2025.4607  2028.9507  2028.9507  2032.4406  2032.4406  2035.9306
  2035.9306  2039.4205  2039.4205  2042.9105  2042.9105  2046.4004
  2046.4004  2049.8904  2049.8904  2053.3803  2053.3803  2056.8703
  2014.9909  2018.4808  2018.4808  2021.9708  2021.9708  2025.4607
  2025.4607  2028.9507  2028.9507  2032.4406  2032.4406  2035.9306
  2035.9306  2039.4205  2039.4205  2042.9105  2042.9105  2046.4004
  2046.4004  2049.8904  2049.8904  2053.3803  2053.3803  2056.8703
  2014.9909  2018.4808  2018.4808  2021.9708  2021.9708  2025.4607
  2025.4607  2028.9507  2028.9507  2032.4406  2032.4406  2035.9306
  2035.9306  2039.4205  2039.4205  2042.9105  2042.9105  2046.4004
  2046.4004  2049.8904  2049.8904  2053.3803  2053.3803  2056.8703
  2014.9909  2018.4808  2018.4808  2021.9708  2021.9708  2025.4607
  2025.4607  2028.9507  2028.9507  2032.4406  2032.4406  2035.9306
  2035.9306  2039.4205  2039.4205  2042.9105  2042.9105  2046.4004
  2046.4004  2049.8904  2049.8904  2053.3803  2053.3803  2056.8703
  2014.9909  2018.4808  2018.4808  2021.9708  2021.9708  2025.4607
  2025.4607  2028.9507  2028.9507  2032.4406  2032.4406  2035.9306
  2035.9306  2039.4205  2039.4205  2042.9105  2042.9105  2046.4004
  2046.4004  2049.8904  2049.8904  2053.3803  2053.3803  2056.8703
  2014.9909  2018.4808  2018.4808  2021.9708  2021.9708  2025.4607
  2025.4607  2028.9507  2028.9507  2032.4406  2032.4406  2035.9306
  2035.9306  2039.4205  2039.4205  2042.9105  2042.9105  2046.4004
  2046.4004  2049.8904  2049.8904  2053.3803  2053.3803  2056.8703
  2014.9909  2018.4808  2018.4808  2021.9708  2021.9708  2025.4607
  2025.4607  2028.9507  2028.9507  2032.4406  2032.4406  2035.9306
  2035.9306  2039.4205  2039.4205  2042.9105  2042.9105  2046.4004
  2046.4004  2049.8904  2049.8904  2053.3803  2053.3803  2056.8703
  2014.9909  2018.4808  2018.4808  2021.9708  2021.9708  2025.4607
  2025.4607  2028.9507  2028.9507  2032.4406  2032.4406  2035.9306
  2035.9306  2039.4205  2039.4205  2042.9105  2042.9105  2046.4004
  2046.4004  2049.8904  2049.8904  2053.3803  2053.3803  2056.8703
  2014.9909  2018.4808  2018.4808  2021.9708  2021.9708  2025.4607
  2025.4607  2028.9507  2028.9507  2032.4406  2032.4406  2035.9306
  2035.9306  2039.4205  2039.4205  2042.9105  2042.9105  2046.4004
  2046.4004  2049.8904  2049.8904  2053.3803  2053.3803  2056.8703
  2014.9909  2018.4808  2018.4808  2021.9708  2021.9708  2025.4607
  2025.4607  2028.9507  2028.9507  2032.4406  2032.4406  2035.9306
  2035.9306  2039.4205  2039.4205  2042.9105  2042.9105  2046.4004
  2046.4004  2049.8904  2049.8904  2053.3803  2053.3803  2056.8703
  2029.9817  2033.4717  2033.4717  2036.9616  2036.9616  2040.4516
  2040.4516  2043.9415  2043.9415  2047.4315  2047.4315  2050.9214
  2050.9214  2054.4114  2054.4114  2057.9013  2057.9013  2061.3913
  2061.3913  2064.8812  2064.8812  2068.3712  2068.3712  2071.8611
  2029.9817  2033.4717  2033.4717  2036.9616  2036.9616  2040.4516
  2040.4516  2043.9415  2043.9415  2047.4315  2047.4315  2050.9214
  2050.9214  2054.4114  2054.4114  2057.9013  2057.9013  2061.3913
  2061.3913  2064.8812  2064.8812  2068.3712  2068.3712  2071.8611
  2029.9817  2033.4717  2033.4717  2036.9616  2036.9616  2040.4516
  2040.4516  2043.9415  2043.9415  2047.4315  2047.4315  2050.9214
  2050.9214  2054.4114  2054.4114  2057.9013  2057.9013  2061.3913
  2061.3913  2064.8812  2064.8812  2068.3712  2068.3712  2071.8611
  2029.9817  2033.4717  2033.4717  2036.9616  2036.9616  2040.4516
  2040.4516  2043.9415  2043.9415  2047.4315  2047.4315  2050.9214
  2050.9214  2054.4114  2054.4114  2057.9013  2057.9013  2061.3913
  2061.3913  2064.8812  2064.8812  2068.3712  2068.3712  2071.8611
  2029.9817  2033.4717  2033.4717  2036.9616  2036.9616  2040.4516
  2040.4516  2043.9415  2043.9415  2047.4315  2047.4315  2050.9214
  2050.9214  2054.4114  2054.4114  2057.9013  2057.9013  2061.3913
  2061.3913  2064.8812  2064.8812  2068.3712  2068.3712  2071.8611
  2029.9817  2033.4717  2033.4717  2036.9616  2036.9616  2040.4516
  2040.4516  2043.9415  2043.9415  2047.4315  2047.4315  2050.9214
  2050.9214  2054.4114  2054.4114  2057.9013  2057.9013  2061.3913
  2061.3913  2064.8812  2064.8812  2068.3712  2068.3712  2071.8611
  2029.9817  2033.4717  2033.4717  2036.9616  2036.9616  2040.4516
  2040.4516  2043.9415  2043.9415  2047.4315  2047.4315  2050.9214
  2050.9214  2054.4114  2054.4114  2057.9013  2057.9013  2061.3913
  2061.3913  2064.8812  2064.8812  2068.3712  2068.3712  2071.8611
  2029.9817  2033.4717  2033.4717  2036.9616  2036.9616  2040.4516
  2040.4516  2043.9415  2043.9415  2047.4315  2047.4315  2050.9214
  2050.9214  2054.4114  2054.4114  2057.9013  2057.9013  2061.3913
  2061.3913  2064.8812  2064.8812  2068.3712  2068.3712  2071.8611
  2029.9817  2033.4717  2033.4717  2036.9616  2036.9616  2040.4516
  2040.4516  2043.9415  2043.9415  2047.4315  2047.4315  2050.9214
  2050.9214  2054.4114  2054.4114  2057.9013  2057.9013  2061.3913
  2061.3913  2064.8812  2064.8812  2068.3712  2068.3712  2071.8611
  2029.9817  2033.4717  2033.4717  2036.9616  2036.9616  2040.4516
  2040.4516  2043.9415  2043.9415  2047.4315  2047.4315  2050.9214
  2050.9214  2054.4114  2054.4114  2057.9013  2057.9013  2061.3913
  2061.3913  2064.8812  2064.8812  2068.3712  2068.3712  2071.8611
  2029.9817  2033.4717  2033.4717  2036.9616  2036.9616  2040.4516
  2040.4516  2043.9415  2043.9415  2047.4315  2047.4315  2050.9214
  2050.9214  2054.4114  2054.4114  2057.9013  2057.9013  2061.3913
  2061.3913  2064.8812  2064.8812  2068.3712  2068.3712  2071.8611
  2029.9817  2033.4717  2033.4717  2036.9616  2036.9616  2040.4516
  2040.4516  2043.9415  2043.9415  2047.4315  2047.4315  2050.9214
  2050.9214  2054.4114  2054.4114  2057.9013  2057.9013  2061.3913
  2061.3913  2064.8812  2064.8812  2068.3712  2068.3712  2071.8611
  2044.9726  2048.4625  2048.4625  2051.9525  2051.9525  2055.4424
  2055.4424  2058.9324  2058.9324  2062.4223  2062.4223  2065.9123
  2065.9123  2069.4022  2069.4022  2072.8922  2072.8922  2076.3821
  2076.3821  2079.8721  2079.8721  2083.3620  2083.3620  2086.8520
  2044.9726  2048.4625  2048.4625  2051.9525  2051.9525  2055.4424
  2055.4424  2058.9324  2058.9324  2062.4223  2062.4223  2065.9123
  2065.9123  2069.4022  2069.4022  2072.8922  2072.8922  2076.3821
  2076.3821  2079.8721  2079.8721  2083.3620  2083.3620  2086.8520
  2044.9726  2048.4625  2048.4625  2051.9525  2051.9525  2055.4424
  2055.4424  2058.9324  2058.9324  2062.4223  2062.4223  2065.9123
  2065.9123  2069.4022  2069.4022  2072.8922  2072.8922  2076.3821
  2076.3821  2079.8721  2079.8721  2083.3620  2083.3620  2086.8520
  2044.9726  2048.4625  2048.4625  2051.9525  2051.9525  2055.4424
  2055.4424  2058.9324  2058.9324  2062.4223  2062.4223  2065.9123
  2065.9123  2069.4022  2069.4022  2072.8922  2072.8922  2076.3821
  2076.3821  2079.8721  2079.8721  2083.3620  2083.3620  2086.8520
  2044.9726  2048.4625  2048.4625  2051.9525  2051.9525  2055.4424
  2055.4424  2058.9324  2058.9324  2062.4223  2062.4223  2065.9123
  2065.9123  2069.4022  2069.4022  2072.8922  2072.8922  2076.3821
  2076.3821  2079.8721  2079.8721  2083.3620  2083.3620  2086.8520
  2044.9726  2048.4625  2048.4625  2051.9525  2051.9525  2055.4424
  2055.4424  2058.9324  2058.9324  2062.4223  2062.4223  2065.9123
  2065.9123  2069.4022  2069.4022  2072.8922  2072.8922  2076.3821
  2076.3821  2079.8721  2079.8721  2083.3620  2083.3620  2086.8520
  2044.9726  2048.4625  2048.4625  2051.9525  2051.9525  2055.4424
  2055.4424  2058.9324  2058.9324  2062.4223  2062.4223  2065.9123
  2065.9123  2069.4022  2069.4022  2072.8922  2072.8922  2076.3821
  2076.3821  2079.8721  2079.8721  2083.3620  2083.3620  2086.8520
  2044.9726  2048.4625  2048.4625  2051.9525  2051.9525  2055.4424
  2055.4424  2058.9324  2058.9324  2062.4223  2062.4223  2065.9123
  2065.9123  2069.4022  2069.4022  2072.8922  2072.8922  2076.3821
  2076.3821  2079.8721  2079.8721  2083.3620  2083.3620  2086.8520
  2044.9726  2048.4625  2048.4625  2051.9525  2051.9525  2055.4424
  2055.4424  2058.9324  2058.9324  2062.4223  2062.4223  2065.9123
  2065.9123  2069.4022  2069.4022  2072.8922  2072.8922  2076.3821
  2076.3821  2079.8721  2079.8721  2083.3620  2083.3620  2086.8520
  2044.9726  2048.4625  2048.4625  2051.9525  2051.9525  2055.4424
  2055.4424  2058.9324  2058.9324  2062.4223  2062.4223  2065.9123
  2065.9123  2069.4022  2069.4022  2072.8922  2072.8922  2076.3821
  2076.3821  2079.8721  2079.8721  2083.3620  2083.3620  2086.8520
  2044.9726  2048.4625  2048.4625  2051.9525  2051.9525  2055.4424
  2055.4424  2058.9324  2058.9324  2062.4223  2062.4223  2065.9123
  2065.9123  2069.4022  2069.4022  2072.8922  2072.8922  2076.3821
  2076.3821  2079.8721  2079.8721  2083.3620  2083.3620  2086.8520
  2044.9726  2048.4625  2048.4625  2051.9525  2051.9525  2055.4424
  2055.4424  2058.9324  2058.9324  2062.4223  2062.4223  2065.9123
  2065.9123  2069.4022  2069.4022  2072.8922  2072.8922  2076.3821
  2076.3821  2079.8721  2079.8721  2083.3620  2083.3620  2086.8520
  2059.9634  2063.4534  2063.4534  2066.9433  2066.9433  2070.4333
  2070.4333  2073.9232  2073.9232  2077.4132  2077.4132  2080.9031
  2080.9031  2084.3931  2084.3931  2087.8830  2087.8830  2091.3730
  2091.3730  2094.8629  2094.8629  2098.3529  2098.3529  2101.8428
  2059.9634  2063.4534  2063.4534  2066.9433  2066.9433  2070.4333
  2070.4333  2073.9232  2073.9232  2077.4132  2077.4132  2080.9031
  2080.9031  2084.3931  2084.3931  2087.8830  2087.8830  2091.3730
  2091.3730  2094.8629  2094.8629  2098.3529  2098.3529  2101.8428
  2059.9634  2063.4534  2063.4534  2066.9433  2066.9433  2070.4333
  2070.4333  2073.9232  2073.9232  2077.4132  2077.4132  2080.9031
  2080.9031  2084.3931  2084.3931  2087.8830  2087.8830  2091.3730
  2091.3730  2094.8629  2094.8629  2098.3529  2098.3529  2101.8428
  2059.9634  2063.4534  2063.4534  2066.9433  2066.9433  2070.4333
  2070.4333  2073.9232  2073.9232  2077.4132  2077.4132  2080.9031
  2080.9031  2084.3931  2084.3931  2087.8830  2087.8830  2091.3730
  2091.3730  2094.8629  2094.8629  2098.3529  2098.3529  2101.8428
  2059.9634  2063.4534  2063.4534  2066.9433  2066.9433  2070.4333
  2070.4333  2073.9232  2073.9232  2077.4132  2077.4132  2080.9031
  2080.9031  2084.3931  2084.3931  2087.8830  2087.8830  2091.3730
  2091.3730  2094.8629  2094.8629  2098.3529  2098.3529  2101.8428
  2059.9634  2063.4534  2063.4534  2066.9433  2066.9433  2070.4333
  2070.4333  2073.9232  2073.9232  2077.4132  2077.4132  2080.9031
  2080.9031  2084.3931  2084.3931  2087.8830  2087.8830  2091.3730
  2091.3730  2094.8629  2094.8629  2098.3529  2098.3529  2101.8428
  2059.9634  2063.4534  2063.4534  2066.9433  2066.9433  2070.4333
  2070.4333  2073.9232  2073.9232  2077.4132  2077.4132  2080.9031
  2080.9031  2084.3931  2084.3931  2087.8830  2087.8830  2091.3730
  2091.3730  2094.8629  2094.8629  2098.3529  2098.3529  2101.8428
  2059.9634  2063.4534  2063.4534  2066.9433  2066.9433  2070.4333
  2070.4333  2073.9232  2073.9232  2077.4132  2077.4132  2080.9031
  2080.9031  2084.3931  2084.3931  2087.8830  2087.8830  2091.3730
  2091.3730  2094.8629  2094.8629  2098.3529  2098.3529  2101.8428
  2059.9634  2063.4534  2063.4534  2066.9433  2066.9433  2070.4333
  2070.4333  2073.9232  2073.9232  2077.4132  2077.4132  2080.9031
  2080.9031  2084.3931  2084.3931  2087.8830  2087.8830  2091.3730
  2091.3730  2094.8629  2094.8629  2098.3529  2098.3529  2101.8428
  2059.9634  2063.4534  2063.4534  2066.9433  2066.9433  2070.4333
  2070.4333  2073.9232  2073.9232  2077.4132  2077.4132  2080.9031
  2080.9031  2084.3931  2084.3931  2087.8830  2087.8830  2091.3730
  2091.3730  2094.8629  2094.8629  2098.3529  2098.3529  2101.8428
  2059.9634  2063.4534  2063.4534  2066.9433  2066.9433  2070.4333
  2070.4333  2073.9232  2073.9232  2077.4132  2077.4132  2080.9031
  2080.9031  2084.3931  2084.3931  2087.8830  2087.8830  2091.3730
  2091.3730  2094.8629  2094.8629  2098.3529  2098.3529  2101.8428
  2059.9634  2063.4534  2063.4534  2066.9433  2066.9433  2070.4333
  2070.4333  2073.9232  2073.9232  2077.4132  2077.4132  2080.9031
  2080.9031  2084.3931  2084.3931  2087.8830  2087.8830  2091.3730
  2091.3730  2094.8629  2094.8629  2098.3529  2098.3529  2101.8428
  2074.9543  2078.4443  2078.4443  2081.9342  2081.9342  2085.4242
  2085.4242  2088.9141  2088.9141  2092.4041  2092.4041  2095.8940
  2095.8940  2099.3840  2099.3840  2102.8739  2102.8739  2106.3639
  2106.3639  2109.8538  2109.8538  2113.3438  2113.3438  2116.8337
  2074.9543  2078.4443  2078.4443  2081.9342  2081.9342  2085.4242
  2085.4242  2088.9141  2088.9141  2092.4041  2092.4041  2095.8940
  2095.8940  2099.3840  2099.3840  2102.8739  2102.8739  2106.3639
  2106.3639  2109.8538  2109.8538  2113.3438  2113.3438  2116.8337
  2074.9543  2078.4443  2078.4443  2081.9342  2081.9342  2085.4242
  2085.4242  2088.9141  2088.9141  2092.4041  2092.4041  2095.8940
  2095.8940  2099.3840  2099.3840  2102.8739  2102.8739  2106.3639
  2106.3639  2109.8538  2109.8538  2113.3438  2113.3438  2116.8337
  2074.9543  2078.4443  2078.4443  2081.9342  2081.9342  2085.4242
  2085.4242  2088.9141  2088.9141  2092.4041  2092.4041  2095.8940
  2095.8940  2099.3840  2099.3840  2102.8739  2102.8739  2106.3639
  2106.3639  2109.8538  2109.8538  2113.3438  2113.3438  2116.8337
  2074.9543  2078.4443  2078.4443  2081.9342  2081.9342  2085.4242
  2085.4242  2088.9141  2088.9141  2092.4041  2092.4041  2095.8940
  2095.8940  2099.3840  2099.3840  2102.8739  2102.8739  2106.3639
  2106.3639  2109.8538  2109.8538  2113.3438  2113.3438  2116.8337
  2074.9543  2078.4443  2078.4443  2081.9342  2081.9342  2085.4242
  2085.4242  2088.9141  2088.9141  2092.4041  2092.4041  2095.8940
  2095.8940  2099.3840  2099.3840  2102.8739  2102.8739  2106.3639
  2106.3639  2109.8538  2109.8538  2113.3438  2113.3438  2116.8337
  2074.9543  2078.4443  2078.4443  2081.9342  2081.9342  2085.4242
  2085.4242  2088.9141  2088.9141  2092.4041  2092.4041  2095.8940
  2095.8940  2099.3840  2099.3840  2102.8739  2102.8739  2106.3639
  2106.3639  2109.8538  2109.8538  2113.3438  2113.3438  2116.8337
  2074.9543  2078.4443  2078.4443  2081.9342  2081.9342  2085.4242
  2085.4242  2088.9141  2088.9141  2092.4041  2092.4041  2095.8940
  2095.8940  2099.3840  2099.3840  2102.8739  2102.8739  2106.3639
  2106.3639  2109.8538  2109.8538  2113.3438  2113.3438  2116.8337
  2074.9543  2078.4443  2078.4443  2081.9342  2081.9342  2085.4242
  2085.4242  2088.9141  2088.9141  2092.4041  2092.4041  2095.8940
  2095.8940  2099.3840  2099.3840  2102.8739  2102.8739  2106.3639
  2106.3639  2109.8538  2109.8538  2113.3438  2113.3438  2116.8337
  2074.9543  2078.4443  2078.4443  2081.9342  2081.9342  2085.4242
  2085.4242  2088.9141  2088.9141  2092.4041  2092.4041  2095.8940
  2095.8940  2099.3840  2099.3840  2102.8739  2102.8739  2106.3639
  2106.3639  2109.8538  2109.8538  2113.3438  2113.3438  2116.8337
  2074.9543  2078.4443  2078.4443  2081.9342  2081.9342  2085.4242
  2085.4242  2088.9141  2088.9141  2092.4041  2092.4041  2095.8940
  2095.8940  2099.3840  2099.3840  2102.8739  2102.8739  2106.3639
  2106.3639  2109.8538  2109.8538  2113.3438  2113.3438  2116.8337
  2074.9543  2078.4443  2078.4443  2081.9342  2081.9342  2085.4242
  2085.4242  2088.9141  2088.9141  2092.4041  2092.4041  2095.8940
  2095.8940  2099.3840  2099.3840  2102.8739  2102.8739  2106.3639
  2106.3639  2109.8538  2109.8538  2113.3438  2113.3438  2116.8337
  2089.9452  2093.4351  2093.4351  2096.9251  2096.9251  2100.4150
  2100.4150  2103.9050  2103.9050  2107.3949  2107.3949  2110.8849
  2110.8849  2114.3748  2114.3748  2117.8648  2117.8648  2121.3547
  2121.3547  2124.8447  2124.8447  2128.3346  2128.3346  2131.8246
  2089.9452  2093.4351  2093.4351  2096.9251  2096.9251  2100.4150
  2100.4150  2103.9050  2103.9050  2107.3949  2107.3949  2110.8849
  2110.8849  2114.3748  2114.3748  2117.8648  2117.8648  2121.3547
  2121.3547  2124.8447  2124.8447  2128.3346  2128.3346  2131.8246
  2089.9452  2093.4351  2093.4351  2096.9251  2096.9251  2100.4150
  2100.4150  2103.9050  2103.9050  2107.3949  2107.3949  2110.8849
  2110.8849  2114.3748  2114.3748  2117.8648  2117.8648  2121.3547
  2121.3547  2124.8447  2124.8447  2128.3346  2128.3346  2131.8246
  2089.9452  2093.4351  2093.4351  2096.9251  2096.9251  2100.4150
  2100.4150  2103.9050  2103.9050  2107.3949  2107.3949  2110.8849
  2110.8849  2114.3748  2114.3748  2117.8648  2117.8648  2121.3547
  2121.3547  2124.8447  2124.8447  2128.3346  2128.3346  2131.8246
  2089.9452  2093.4351  2093.4351  2096.9251  2096.9251  2100.4150
  2100.4150  2103.9050  2103.9050  2107.3949  2107.3949  2110.8849
  2110.8849  2114.3748  2114.3748  2117.8648  2117.8648  2121.3547
  2121.3547  2124.8447  2124.8447  2128.3346  2128.3346  2131.8246
  2089.9452  2093.4351  2093.4351  2096.9251  2096.9251  2100.4150
  2100.4150  2103.9050  2103.9050  2107.3949  2107.3949  2110.8849
  2110.8849  2114.3748  2114.3748  2117.8648  2117.8648  2121.3547
  2121.3547  2124.8447  2124.8447  2128.3346  2128.3346  2131.8246
  2089.9452  2093.4351  2093.4351  2096.9251  2096.9251  2100.4150
  2100.4150  2103.9050  2103.9050  2107.3949  2107.3949  2110.8849
  2110.8849  2114.3748  2114.3748  2117.8648  2117.8648  2121.3547
  2121.3547  2124.8447  2124.8447  2128.3346  2128.3346  2131.8246
  2089.9452  2093.4351  2093.4351  2096.9251  2096.9251  2100.4150
  2100.4150  2103.9050  2103.9050  2107.3949  2107.3949  2110.8849
  2110.8849  2114.3748  2114.3748  2117.8648  2117.8648  2121.3547
  2121.3547  2124.8447  2124.8447  2128.3346  2128.3346  2131.8246
  2089.9452  2093.4351  2093.4351  2096.9251  2096.9251  2100.4150
  2100.4150  2103.9050  2103.9050  2107.3949  2107.3949  2110.8849
  2110.8849  2114.3748  2114.3748  2117.8648  2117.8648  2121.3547
  2121.3547  2124.8447  2124.8447  2128.3346  2128.3346  2131.8246
  2089.9452  2093.4351  2093.4351  2096.9251  2096.9251  2100.4150
  2100.4150  2103.9050  2103.9050  2107.3949  2107.3949  2110.8849
  2110.8849  2114.3748  2114.3748  2117.8648  2117.8648  2121.3547
  2121.3547  2124.8447  2124.8447  2128.3346  2128.3346  2131.8246
  2089.9452  2093.4351  2093.4351  2096.9251  2096.9251  2100.4150
  2100.4150  2103.9050  2103.9050  2107.3949  2107.3949  2110.8849
  2110.8849  2114.3748  2114.3748  2117.8648  2117.8648  2121.3547
  2121.3547  2124.8447  2124.8447  2128.3346  2128.3346  2131.8246
  2089.9452  2093.4351  2093.4351  2096.9251  2096.9251  2100.4150
  2100.4150  2103.9050  2103.9050  2107.3949  2107.3949  2110.8849
  2110.8849  2114.3748  2114.3748  2117.8648  2117.8648  2121.3547
  2121.3547  2124.8447  2124.8447  2128.3346  2128.3346  2131.8246
  2104.9360  2108.4260  2108.4260  2111.9159  2111.9159  2115.4059
  2115.4059  2118.8958  2118.8958  2122.3858  2122.3858  2125.8757
  2125.8757  2129.3657  2129.3657  2132.8556  2132.8556  2136.3456
  2136.3456  2139.8355  2139.8355  2143.3255  2143.3255  2146.8154
  2104.9360  2108.4260  2108.4260  2111.9159  2111.9159  2115.4059
  2115.4059  2118.8958  2118.8958  2122.3858  2122.3858  2125.8757
  2125.8757  2129.3657  2129.3657  2132.8556  2132.8556  2136.3456
  2136.3456  2139.8355  2139.8355  2143.3255  2143.3255  2146.8154
  2104.9360  2108.4260  2108.4260  2111.9159  2111.9159  2115.4059
  2115.4059  2118.8958  2118.8958  2122.3858  2122.3858  2125.8757
  2125.8757  2129.3657  2129.3657  2132.8556  2132.8556  2136.3456
  2136.3456  2139.8355  2139.8355  2143.3255  2143.3255  2146.8154
  2104.9360  2108.4260  2108.4260  2111.9159  2111.9159  2115.4059
  2115.4059  2118.8958  2118.8958  2122.3858  2122.3858  2125.8757
  2125.8757  2129.3657  2129.3657  2132.8556  2132.8556  2136.3456
  2136.3456  2139.8355  2139.8355  2143.3255  2143.3255  2146.8154
  2104.9360  2108.4260  2108.4260  2111.9159  2111.9159  2115.4059
  2115.4059  2118.8958  2118.8958  2122.3858  2122.3858  2125.8757
  2125.8757  2129.3657  2129.3657  2132.8556  2132.8556  2136.3456
  2136.3456  2139.8355  2139.8355  2143.3255  2143.3255  2146.8154
  2104.9360  2108.4260  2108.4260  2111.9159  2111.9159  2115.4059
  2115.4059  2118.8958  2118.8958  2122.3858  2122.3858  2125.8757
  2125.8757  2129.3657  2129.3657  2132.8556  2132.8556  2136.3456
  2136.3456  2139.8355  2139.8355  2143.3255  2143.3255  2146.8154
  2104.9360  2108.4260  2108.4260  2111.9159  2111.9159  2115.4059
  2115.4059  2118.8958  2118.8958  2122.3858  2122.3858  2125.8757
  2125.8757  2129.3657  2129.3657  2132.8556  2132.8556  2136.3456
  2136.3456  2139.8355  2139.8355  2143.3255  2143.3255  2146.8154
  2104.9360  2108.4260  2108.4260  2111.9159  2111.9159  2115.4059
  2115.4059  2118.8958  2118.8958  2122.3858  2122.3858  2125.8757
  2125.8757  2129.3657  2129.3657  2132.8556  2132.8556  2136.3456
  2136.3456  2139.8355  2139.8355  2143.3255  2143.3255  2146.8154
  2104.9360  2108.4260  2108.4260  2111.9159  2111.9159  2115.4059
  2115.4059  2118.8958  2118.8958  2122.3858  2122.3858  2125.8757
  2125.8757  2129.3657  2129.3657  2132.8556  2132.8556  2136.3456
  2136.3456  2139.8355  2139.8355  2143.3255  2143.3255  2146.8154
  2104.9360  2108.4260  2108.4260  2111.9159  2111.9159  2115.4059
  2115.4059  2118.8958  2118.8958  2122.3858  2122.3858  2125.8757
  2125.8757  2129.3657  2129.3657  2132.8556  2132.8556  2136.3456
  2136.3456  2139.8355  2139.8355  2143.3255  2143.3255  2146.8154
  2104.9360  2108.4260  2108.4260  2111.9159  2111.9159  2115.4059
  2115.4059  2118.8958  2118.8958  2122.3858  2122.3858  2125.8757
  2125.8757  2129.3657  2129.3657  2132.8556  2132.8556  2136.3456
  2136.3456  2139.8355  2139.8355  2143.3255  2143.3255  2146.8154
  2104.9360  2108.4260  2108.4260  2111.9159  2111.9159  2115.4059
  2115.4059  2118.8958  2118.8958  2122.3858  2122.3858  2125.8757
  2125.8757  2129.3657  2129.3657  2132.8556  2132.8556  2136.3456
  2136.3456  2139.8355  2139.8355  2143.3255  2143.3255  2146.8154
  2119.9269  2123.4168  2123.4168  2126.9068  2126.9068  2130.3967
  2130.3967  2133.8867  2133.8867  2137.3766  2137.3766  2140.8666
  2140.8666  2144.3565  2144.3565  2147.8465  2147.8465  2151.3364
  2151.3364  2154.8264  2154.8264  2158.3163  2158.3163  2161.8063
  2119.9269  2123.4168  2123.4168  2126.9068  2126.9068  2130.3967
  2130.3967  2133.8867  2133.8867  2137.3766  2137.3766  2140.8666
  2140.8666  2144.3565  2144.3565  2147.8465  2147.8465  2151.3364
  2151.3364  2154.8264  2154.8264  2158.3163  2158.3163  2161.8063
  2119.9269  2123.4168  2123.4168  2126.9068  2126.9068  2130.3967
  2130.3967  2133.8867  2133.8867  2137.3766  2137.3766  2140.8666
  2140.8666  2144.3565  2144.3565  2147.8465  2147.8465  2151.3364
  2151.3364  2154.8264  2154.8264  2158.3163  2158.3163  2161.8063
  2119.9269  2123.4168  2123.4168  2126.9068  2126.9068  2130.3967
  2130.3967  2133.8867  2133.8867  2137.3766  2137.3766  2140.8666
  2140.8666  2144.3565  2144.3565  2147.8465  2147.8465  2151.3364
  2151.3364  2154.8264  2154.8264  2158.3163  2158.3163  2161.8063
  2119.9269  2123.4168  2123.4168  2126.9068  2126.9068  2130.3967
  2130.3967  2133.8867  2133.8867  2137.3766  2137.3766  2140.8666
  2140.8666  2144.3565  2144.3565  2147.8465  2147.8465  2151.3364
  2151.3364  2154.8264  2154.8264  2158.3163  2158.3163  2161.8063
  2119.9269  2123.4168  2123.4168  2126.9068  2126.9068  2130.3967
  2130.3967  2133.8867  2133.8867  2137.3766  2137.3766  2140.8666
  2140.8666  2144.3565  2144.3565  2147.8465  2147.8465  2151.3364
  2151.3364  2154.8264  2154.8264  2158.3163  2158.3163  2161.8063
 / 
