-- This reservoir simulation deck is made available under the Open Database
-- License: http://opendatacommons.org/licenses/odbl/1.0/. Any rights in
-- individual contents of the database are licensed under the Database Contents
-- License: http://opendatacommons.org/licenses/dbcl/1.0/

-- Copyright (C) 2019 Equinor


SPECGRID
 4 5 8 1 F / 

COORD
  2000.0000  2000.0000  2400.0000   1999.5638  1999.3024  2479.7290 
  2199.8096  2000.0000  2408.7239   2199.3735  1999.3024  2488.4529 
  2399.6193  2000.0000  2417.4478   2399.1831  1999.3024  2497.1767 
  2599.4289  2000.0000  2426.1716   2598.9927  1999.3024  2505.9006 
  2799.2386  2000.0000  2434.8955   2798.8024  1999.3024  2514.6245 
  2000.0000  2199.5128  2413.9513   1999.5638  2198.8152  2493.6803 
  2199.8096  2199.5128  2422.6752   2199.3735  2198.8152  2502.4042 
  2399.6193  2199.5128  2431.3990   2399.1831  2198.8152  2511.1280 
  2599.4289  2199.5128  2440.1229   2598.9927  2198.8152  2519.8519 
  2799.2386  2199.5128  2448.8468   2798.8024  2198.8152  2528.5758 
  2000.0000  2399.0256  2427.9026   1999.5638  2398.3281  2507.6316 
  2199.8096  2399.0256  2436.6265   2199.3735  2398.3281  2516.3554 
  2399.6193  2399.0256  2445.3503   2399.1831  2398.3281  2525.0793 
  2599.4289  2399.0256  2454.0742   2598.9927  2398.3281  2533.8032 
  2799.2386  2399.0256  2462.7981   2798.8024  2398.3281  2542.5271 
  2000.0000  2598.5384  2441.8539   1999.5638  2597.8409  2521.5829 
  2199.8096  2598.5384  2450.5778   2199.3735  2597.8409  2530.3067 
  2399.6193  2598.5384  2459.3016   2399.1831  2597.8409  2539.0306 
  2599.4289  2598.5384  2468.0255   2598.9927  2597.8409  2547.7545 
  2799.2386  2598.5384  2476.7494   2798.8024  2597.8409  2556.4784 
  2000.0000  2798.0512  2455.8052   1999.5638  2797.3537  2535.5342 
  2199.8096  2798.0512  2464.5291   2199.3735  2797.3537  2544.2580 
  2399.6193  2798.0512  2473.2529   2399.1831  2797.3537  2552.9819 
  2599.4289  2798.0512  2481.9768   2598.9927  2797.3537  2561.7058 
  2799.2386  2798.0512  2490.7007   2798.8024  2797.3537  2570.4297 
  2000.0000  2997.5641  2469.7565   1999.5638  2996.8665  2549.4855 
  2199.8096  2997.5641  2478.4804   2199.3735  2996.8665  2558.2093 
  2399.6193  2997.5641  2487.2042   2399.1831  2996.8665  2566.9332 
  2599.4289  2997.5641  2495.9281   2598.9927  2996.8665  2575.6571 
  2799.2386  2997.5641  2504.6520   2798.8024  2996.8665  2584.3810 
/ 

ZCORN
  2400.0000  2408.7239  2408.7239  2417.4478  2417.4478  2426.1716
  2426.1716  2434.8955  2413.9513  2422.6752  2422.6752  2431.3990
  2431.3990  2440.1229  2440.1229  2448.8468  2413.9513  2422.6752
  2422.6752  2431.3990  2431.3990  2440.1229  2440.1229  2448.8468
  2427.9026  2436.6265  2436.6265  2445.3503  2445.3503  2454.0742
  2454.0742  2462.7981  2427.9026  2436.6265  2436.6265  2445.3503
  2445.3503  2454.0742  2454.0742  2462.7981  2441.8539  2450.5778
  2450.5778  2459.3016  2459.3016  2468.0255  2468.0255  2476.7494
  2441.8539  2450.5778  2450.5778  2459.3016  2459.3016  2468.0255
  2468.0255  2476.7494  2455.8052  2464.5291  2464.5291  2473.2529
  2473.2529  2481.9768  2481.9768  2490.7007  2455.8052  2464.5291
  2464.5291  2473.2529  2473.2529  2481.9768  2481.9768  2490.7007
  2469.7565  2478.4804  2478.4804  2487.2042  2487.2042  2495.9281
  2495.9281  2504.6520  2409.9661  2418.6900  2418.6900  2427.4139
  2427.4139  2436.1378  2436.1378  2444.8616  2423.9174  2432.6413
  2432.6413  2441.3652  2441.3652  2450.0890  2450.0890  2458.8129
  2423.9174  2432.6413  2432.6413  2441.3652  2441.3652  2450.0890
  2450.0890  2458.8129  2437.8687  2446.5926  2446.5926  2455.3165
  2455.3165  2464.0403  2464.0403  2472.7642  2437.8687  2446.5926
  2446.5926  2455.3165  2455.3165  2464.0403  2464.0403  2472.7642
  2451.8200  2460.5439  2460.5439  2469.2678  2469.2678  2477.9916
  2477.9916  2486.7155  2451.8200  2460.5439  2460.5439  2469.2678
  2469.2678  2477.9916  2477.9916  2486.7155  2465.7713  2474.4952
  2474.4952  2483.2191  2483.2191  2491.9429  2491.9429  2500.6668
  2465.7713  2474.4952  2474.4952  2483.2191  2483.2191  2491.9429
  2491.9429  2500.6668  2479.7226  2488.4465  2488.4465  2497.1704
  2497.1704  2505.8942  2505.8942  2514.6181  2409.9661  2418.6900
  2418.6900  2427.4139  2427.4139  2436.1378  2436.1378  2444.8616
  2423.9174  2432.6413  2432.6413  2441.3652  2441.3652  2450.0890
  2450.0890  2458.8129  2423.9174  2432.6413  2432.6413  2441.3652
  2441.3652  2450.0890  2450.0890  2458.8129  2437.8687  2446.5926
  2446.5926  2455.3165  2455.3165  2464.0403  2464.0403  2472.7642
  2437.8687  2446.5926  2446.5926  2455.3165  2455.3165  2464.0403
  2464.0403  2472.7642  2451.8200  2460.5439  2460.5439  2469.2678
  2469.2678  2477.9916  2477.9916  2486.7155  2451.8200  2460.5439
  2460.5439  2469.2678  2469.2678  2477.9916  2477.9916  2486.7155
  2465.7713  2474.4952  2474.4952  2483.2191  2483.2191  2491.9429
  2491.9429  2500.6668  2465.7713  2474.4952  2474.4952  2483.2191
  2483.2191  2491.9429  2491.9429  2500.6668  2479.7226  2488.4465
  2488.4465  2497.1704  2497.1704  2505.8942  2505.8942  2514.6181
  2419.9322  2428.6561  2428.6561  2437.3800  2437.3800  2446.1039
  2446.1039  2454.8278  2433.8835  2442.6074  2442.6074  2451.3313
  2451.3313  2460.0552  2460.0552  2468.7791  2433.8835  2442.6074
  2442.6074  2451.3313  2451.3313  2460.0552  2460.0552  2468.7791
  2447.8348  2456.5587  2456.5587  2465.2826  2465.2826  2474.0065
  2474.0065  2482.7303  2447.8348  2456.5587  2456.5587  2465.2826
  2465.2826  2474.0065  2474.0065  2482.7303  2461.7861  2470.5100
  2470.5100  2479.2339  2479.2339  2487.9578  2487.9578  2496.6816
  2461.7861  2470.5100  2470.5100  2479.2339  2479.2339  2487.9578
  2487.9578  2496.6816  2475.7374  2484.4613  2484.4613  2493.1852
  2493.1852  2501.9091  2501.9091  2510.6329  2475.7374  2484.4613
  2484.4613  2493.1852  2493.1852  2501.9091  2501.9091  2510.6329
  2489.6887  2498.4126  2498.4126  2507.1365  2507.1365  2515.8604
  2515.8604  2524.5842  2419.9322  2428.6561  2428.6561  2437.3800
  2437.3800  2446.1039  2446.1039  2454.8278  2433.8835  2442.6074
  2442.6074  2451.3313  2451.3313  2460.0552  2460.0552  2468.7791
  2433.8835  2442.6074  2442.6074  2451.3313  2451.3313  2460.0552
  2460.0552  2468.7791  2447.8348  2456.5587  2456.5587  2465.2826
  2465.2826  2474.0065  2474.0065  2482.7303  2447.8348  2456.5587
  2456.5587  2465.2826  2465.2826  2474.0065  2474.0065  2482.7303
  2461.7861  2470.5100  2470.5100  2479.2339  2479.2339  2487.9578
  2487.9578  2496.6816  2461.7861  2470.5100  2470.5100  2479.2339
  2479.2339  2487.9578  2487.9578  2496.6816  2475.7374  2484.4613
  2484.4613  2493.1852  2493.1852  2501.9091  2501.9091  2510.6329
  2475.7374  2484.4613  2484.4613  2493.1852  2493.1852  2501.9091
  2501.9091  2510.6329  2489.6887  2498.4126  2498.4126  2507.1365
  2507.1365  2515.8604  2515.8604  2524.5842  2429.8984  2438.6222
  2438.6222  2447.3461  2447.3461  2456.0700  2456.0700  2464.7939
  2443.8497  2452.5735  2452.5735  2461.2974  2461.2974  2470.0213
  2470.0213  2478.7452  2443.8497  2452.5735  2452.5735  2461.2974
  2461.2974  2470.0213  2470.0213  2478.7452  2457.8010  2466.5248
  2466.5248  2475.2487  2475.2487  2483.9726  2483.9726  2492.6965
  2457.8010  2466.5248  2466.5248  2475.2487  2475.2487  2483.9726
  2483.9726  2492.6965  2471.7523  2480.4761  2480.4761  2489.2000
  2489.2000  2497.9239  2497.9239  2506.6478  2471.7523  2480.4761
  2480.4761  2489.2000  2489.2000  2497.9239  2497.9239  2506.6478
  2485.7035  2494.4274  2494.4274  2503.1513  2503.1513  2511.8752
  2511.8752  2520.5991  2485.7035  2494.4274  2494.4274  2503.1513
  2503.1513  2511.8752  2511.8752  2520.5991  2499.6548  2508.3787
  2508.3787  2517.1026  2517.1026  2525.8265  2525.8265  2534.5504
  2429.8984  2438.6222  2438.6222  2447.3461  2447.3461  2456.0700
  2456.0700  2464.7939  2443.8497  2452.5735  2452.5735  2461.2974
  2461.2974  2470.0213  2470.0213  2478.7452  2443.8497  2452.5735
  2452.5735  2461.2974  2461.2974  2470.0213  2470.0213  2478.7452
  2457.8010  2466.5248  2466.5248  2475.2487  2475.2487  2483.9726
  2483.9726  2492.6965  2457.8010  2466.5248  2466.5248  2475.2487
  2475.2487  2483.9726  2483.9726  2492.6965  2471.7523  2480.4761
  2480.4761  2489.2000  2489.2000  2497.9239  2497.9239  2506.6478
  2471.7523  2480.4761  2480.4761  2489.2000  2489.2000  2497.9239
  2497.9239  2506.6478  2485.7035  2494.4274  2494.4274  2503.1513
  2503.1513  2511.8752  2511.8752  2520.5991  2485.7035  2494.4274
  2494.4274  2503.1513  2503.1513  2511.8752  2511.8752  2520.5991
  2499.6548  2508.3787  2508.3787  2517.1026  2517.1026  2525.8265
  2525.8265  2534.5504  2439.8645  2448.5884  2448.5884  2457.3122
  2457.3122  2466.0361  2466.0361  2474.7600  2453.8158  2462.5397
  2462.5397  2471.2635  2471.2635  2479.9874  2479.9874  2488.7113
  2453.8158  2462.5397  2462.5397  2471.2635  2471.2635  2479.9874
  2479.9874  2488.7113  2467.7671  2476.4910  2476.4910  2485.2148
  2485.2148  2493.9387  2493.9387  2502.6626  2467.7671  2476.4910
  2476.4910  2485.2148  2485.2148  2493.9387  2493.9387  2502.6626
  2481.7184  2490.4423  2490.4423  2499.1661  2499.1661  2507.8900
  2507.8900  2516.6139  2481.7184  2490.4423  2490.4423  2499.1661
  2499.1661  2507.8900  2507.8900  2516.6139  2495.6697  2504.3935
  2504.3935  2513.1174  2513.1174  2521.8413  2521.8413  2530.5652
  2495.6697  2504.3935  2504.3935  2513.1174  2513.1174  2521.8413
  2521.8413  2530.5652  2509.6210  2518.3448  2518.3448  2527.0687
  2527.0687  2535.7926  2535.7926  2544.5165  2439.8645  2448.5884
  2448.5884  2457.3122  2457.3122  2466.0361  2466.0361  2474.7600
  2453.8158  2462.5397  2462.5397  2471.2635  2471.2635  2479.9874
  2479.9874  2488.7113  2453.8158  2462.5397  2462.5397  2471.2635
  2471.2635  2479.9874  2479.9874  2488.7113  2467.7671  2476.4910
  2476.4910  2485.2148  2485.2148  2493.9387  2493.9387  2502.6626
  2467.7671  2476.4910  2476.4910  2485.2148  2485.2148  2493.9387
  2493.9387  2502.6626  2481.7184  2490.4423  2490.4423  2499.1661
  2499.1661  2507.8900  2507.8900  2516.6139  2481.7184  2490.4423
  2490.4423  2499.1661  2499.1661  2507.8900  2507.8900  2516.6139
  2495.6697  2504.3935  2504.3935  2513.1174  2513.1174  2521.8413
  2521.8413  2530.5652  2495.6697  2504.3935  2504.3935  2513.1174
  2513.1174  2521.8413  2521.8413  2530.5652  2509.6210  2518.3448
  2518.3448  2527.0687  2527.0687  2535.7926  2535.7926  2544.5165
  2449.8306  2458.5545  2458.5545  2467.2784  2467.2784  2476.0022
  2476.0022  2484.7261  2463.7819  2472.5058  2472.5058  2481.2297
  2481.2297  2489.9535  2489.9535  2498.6774  2463.7819  2472.5058
  2472.5058  2481.2297  2481.2297  2489.9535  2489.9535  2498.6774
  2477.7332  2486.4571  2486.4571  2495.1810  2495.1810  2503.9048
  2503.9048  2512.6287  2477.7332  2486.4571  2486.4571  2495.1810
  2495.1810  2503.9048  2503.9048  2512.6287  2491.6845  2500.4084
  2500.4084  2509.1323  2509.1323  2517.8561  2517.8561  2526.5800
  2491.6845  2500.4084  2500.4084  2509.1323  2509.1323  2517.8561
  2517.8561  2526.5800  2505.6358  2514.3597  2514.3597  2523.0835
  2523.0835  2531.8074  2531.8074  2540.5313  2505.6358  2514.3597
  2514.3597  2523.0835  2523.0835  2531.8074  2531.8074  2540.5313
  2519.5871  2528.3110  2528.3110  2537.0348  2537.0348  2545.7587
  2545.7587  2554.4826  2449.8306  2458.5545  2458.5545  2467.2784
  2467.2784  2476.0022  2476.0022  2484.7261  2463.7819  2472.5058
  2472.5058  2481.2297  2481.2297  2489.9535  2489.9535  2498.6774
  2463.7819  2472.5058  2472.5058  2481.2297  2481.2297  2489.9535
  2489.9535  2498.6774  2477.7332  2486.4571  2486.4571  2495.1810
  2495.1810  2503.9048  2503.9048  2512.6287  2477.7332  2486.4571
  2486.4571  2495.1810  2495.1810  2503.9048  2503.9048  2512.6287
  2491.6845  2500.4084  2500.4084  2509.1323  2509.1323  2517.8561
  2517.8561  2526.5800  2491.6845  2500.4084  2500.4084  2509.1323
  2509.1323  2517.8561  2517.8561  2526.5800  2505.6358  2514.3597
  2514.3597  2523.0835  2523.0835  2531.8074  2531.8074  2540.5313
  2505.6358  2514.3597  2514.3597  2523.0835  2523.0835  2531.8074
  2531.8074  2540.5313  2519.5871  2528.3110  2528.3110  2537.0348
  2537.0348  2545.7587  2545.7587  2554.4826  2459.7967  2468.5206
  2468.5206  2477.2445  2477.2445  2485.9684  2485.9684  2494.6922
  2473.7480  2482.4719  2482.4719  2491.1958  2491.1958  2499.9197
  2499.9197  2508.6435  2473.7480  2482.4719  2482.4719  2491.1958
  2491.1958  2499.9197  2499.9197  2508.6435  2487.6993  2496.4232
  2496.4232  2505.1471  2505.1471  2513.8710  2513.8710  2522.5948
  2487.6993  2496.4232  2496.4232  2505.1471  2505.1471  2513.8710
  2513.8710  2522.5948  2501.6506  2510.3745  2510.3745  2519.0984
  2519.0984  2527.8223  2527.8223  2536.5461  2501.6506  2510.3745
  2510.3745  2519.0984  2519.0984  2527.8223  2527.8223  2536.5461
  2515.6019  2524.3258  2524.3258  2533.0497  2533.0497  2541.7735
  2541.7735  2550.4974  2515.6019  2524.3258  2524.3258  2533.0497
  2533.0497  2541.7735  2541.7735  2550.4974  2529.5532  2538.2771
  2538.2771  2547.0010  2547.0010  2555.7248  2555.7248  2564.4487
  2459.7967  2468.5206  2468.5206  2477.2445  2477.2445  2485.9684
  2485.9684  2494.6922  2473.7480  2482.4719  2482.4719  2491.1958
  2491.1958  2499.9197  2499.9197  2508.6435  2473.7480  2482.4719
  2482.4719  2491.1958  2491.1958  2499.9197  2499.9197  2508.6435
  2487.6993  2496.4232  2496.4232  2505.1471  2505.1471  2513.8710
  2513.8710  2522.5948  2487.6993  2496.4232  2496.4232  2505.1471
  2505.1471  2513.8710  2513.8710  2522.5948  2501.6506  2510.3745
  2510.3745  2519.0984  2519.0984  2527.8223  2527.8223  2536.5461
  2501.6506  2510.3745  2510.3745  2519.0984  2519.0984  2527.8223
  2527.8223  2536.5461  2515.6019  2524.3258  2524.3258  2533.0497
  2533.0497  2541.7735  2541.7735  2550.4974  2515.6019  2524.3258
  2524.3258  2533.0497  2533.0497  2541.7735  2541.7735  2550.4974
  2529.5532  2538.2771  2538.2771  2547.0010  2547.0010  2555.7248
  2555.7248  2564.4487  2469.7629  2478.4867  2478.4867  2487.2106
  2487.2106  2495.9345  2495.9345  2504.6584  2483.7142  2492.4380
  2492.4380  2501.1619  2501.1619  2509.8858  2509.8858  2518.6097
  2483.7142  2492.4380  2492.4380  2501.1619  2501.1619  2509.8858
  2509.8858  2518.6097  2497.6654  2506.3893  2506.3893  2515.1132
  2515.1132  2523.8371  2523.8371  2532.5610  2497.6654  2506.3893
  2506.3893  2515.1132  2515.1132  2523.8371  2523.8371  2532.5610
  2511.6167  2520.3406  2520.3406  2529.0645  2529.0645  2537.7884
  2537.7884  2546.5123  2511.6167  2520.3406  2520.3406  2529.0645
  2529.0645  2537.7884  2537.7884  2546.5123  2525.5680  2534.2919
  2534.2919  2543.0158  2543.0158  2551.7397  2551.7397  2560.4635
  2525.5680  2534.2919  2534.2919  2543.0158  2543.0158  2551.7397
  2551.7397  2560.4635  2539.5193  2548.2432  2548.2432  2556.9671
  2556.9671  2565.6910  2565.6910  2574.4148  2469.7629  2478.4867
  2478.4867  2487.2106  2487.2106  2495.9345  2495.9345  2504.6584
  2483.7142  2492.4380  2492.4380  2501.1619  2501.1619  2509.8858
  2509.8858  2518.6097  2483.7142  2492.4380  2492.4380  2501.1619
  2501.1619  2509.8858  2509.8858  2518.6097  2497.6654  2506.3893
  2506.3893  2515.1132  2515.1132  2523.8371  2523.8371  2532.5610
  2497.6654  2506.3893  2506.3893  2515.1132  2515.1132  2523.8371
  2523.8371  2532.5610  2511.6167  2520.3406  2520.3406  2529.0645
  2529.0645  2537.7884  2537.7884  2546.5123  2511.6167  2520.3406
  2520.3406  2529.0645  2529.0645  2537.7884  2537.7884  2546.5123
  2525.5680  2534.2919  2534.2919  2543.0158  2543.0158  2551.7397
  2551.7397  2560.4635  2525.5680  2534.2919  2534.2919  2543.0158
  2543.0158  2551.7397  2551.7397  2560.4635  2539.5193  2548.2432
  2548.2432  2556.9671  2556.9671  2565.6910  2565.6910  2574.4148
  2479.7290  2488.4529  2488.4529  2497.1767  2497.1767  2505.9006
  2505.9006  2514.6245  2493.6803  2502.4042  2502.4042  2511.1280
  2511.1280  2519.8519  2519.8519  2528.5758  2493.6803  2502.4042
  2502.4042  2511.1280  2511.1280  2519.8519  2519.8519  2528.5758
  2507.6316  2516.3554  2516.3554  2525.0793  2525.0793  2533.8032
  2533.8032  2542.5271  2507.6316  2516.3554  2516.3554  2525.0793
  2525.0793  2533.8032  2533.8032  2542.5271  2521.5829  2530.3067
  2530.3067  2539.0306  2539.0306  2547.7545  2547.7545  2556.4784
  2521.5829  2530.3067  2530.3067  2539.0306  2539.0306  2547.7545
  2547.7545  2556.4784  2535.5342  2544.2580  2544.2580  2552.9819
  2552.9819  2561.7058  2561.7058  2570.4297  2535.5342  2544.2580
  2544.2580  2552.9819  2552.9819  2561.7058  2561.7058  2570.4297
  2549.4855  2558.2093  2558.2093  2566.9332  2566.9332  2575.6571
  2575.6571  2584.3810 / 
