-- This reservoir simulation deck is made available under the Open Database
-- License: http://opendatacommons.org/licenses/odbl/1.0/. Any rights in
-- individual contents of the database are licensed under the Database Contents
-- License: http://opendatacommons.org/licenses/dbcl/1.0/

-- Copyright (C) 2023 Equinor


SPECGRID
 12 13 7 1 F / 

COORD
  2000.0000  2000.0000  1993.2000   1999.9389  1999.9695  2017.1954 
  2099.9848  2000.0000  1994.9452   2099.9237  1999.9695  2018.9407 
  2199.9695  2000.0000  1996.6905   2199.9085  1999.9695  2020.6859 
  2299.9543  2000.0000  1998.4357   2299.8932  1999.9695  2022.4312 
  2399.9391  2000.0000  2006.9810   2399.8780  1999.9695  2030.9764 
  2499.9238  2000.0000  2008.7262   2499.8628  1999.9695  2032.7216 
  2599.9086  2000.0000  2010.4714   2599.8475  1999.9695  2034.4669 
  2699.8934  2000.0000  2012.2167   2699.8323  1999.9695  2036.2121 
  2799.8782  2000.0000  2013.9619   2799.8171  1999.9695  2037.9574 
  2899.8629  2000.0000  2015.7072   2899.8018  1999.9695  2039.7026 
  2999.8477  2000.0000  2017.4524   2999.7866  1999.9695  2041.4478 
  3099.8325  2000.0000  2019.1976   3099.7714  1999.9695  2043.1931 
  3199.8172  2000.0000  2020.9429   3199.7562  1999.9695  2044.9383 
  2000.0000  2099.9962  1994.0727   1999.9389  2099.9656  2018.0681 
  2099.9848  2099.9962  1995.8179   2099.9237  2099.9656  2019.8133 
  2199.9695  2099.9962  1997.5631   2199.9085  2099.9656  2021.5586 
  2299.9543  2099.9962  1999.3084   2299.8932  2099.9656  2023.3038 
  2399.9391  2099.9962  2007.8536   2399.8780  2099.9656  2031.8490 
  2499.9238  2099.9962  2009.5989   2499.8628  2099.9656  2033.5943 
  2599.9086  2099.9962  2011.3441   2599.8475  2099.9656  2035.3395 
  2699.8934  2099.9962  2013.0893   2699.8323  2099.9656  2037.0848 
  2799.8782  2099.9962  2014.8346   2799.8171  2099.9656  2038.8300 
  2899.8629  2099.9962  2016.5798   2899.8018  2099.9656  2040.5753 
  2999.8477  2099.9962  2018.3251   2999.7866  2099.9656  2042.3205 
  3099.8325  2099.9962  2020.0703   3099.7714  2099.9656  2044.0657 
  3199.8172  2099.9962  2021.8155   3199.7562  2099.9656  2045.8110 
  2000.0000  2199.9924  1994.9453   1999.9389  2199.9618  2018.9407 
  2099.9848  2199.9924  1996.6905   2099.9237  2199.9618  2020.6860 
  2199.9695  2199.9924  1998.4358   2199.9085  2199.9618  2022.4312 
  2299.9543  2199.9924  2000.1810   2299.8932  2199.9618  2024.1765 
  2399.9391  2199.9924  2008.7263   2399.8780  2199.9618  2032.7217 
  2499.9238  2199.9924  2010.4715   2499.8628  2199.9618  2034.4669 
  2599.9086  2199.9924  2012.2168   2599.8475  2199.9618  2036.2122 
  2699.8934  2199.9924  2013.9620   2699.8323  2199.9618  2037.9574 
  2799.8782  2199.9924  2015.7072   2799.8171  2199.9618  2039.7027 
  2899.8629  2199.9924  2017.4525   2899.8018  2199.9618  2041.4479 
  2999.8477  2199.9924  2019.1977   2999.7866  2199.9618  2043.1931 
  3099.8325  2199.9924  2020.9430   3099.7714  2199.9618  2044.9384 
  3199.8172  2199.9924  2022.6882   3199.7562  2199.9618  2046.6836 
  2000.0000  2299.9886  1995.8180   1999.9389  2299.9580  2019.8134 
  2099.9848  2299.9886  1997.5632   2099.9237  2299.9580  2021.5586 
  2199.9695  2299.9886  1999.3084   2199.9085  2299.9580  2023.3039 
  2299.9543  2299.9886  2001.0537   2299.8932  2299.9580  2025.0491 
  2399.9391  2299.9886  2009.5989   2399.8780  2299.9580  2033.5944 
  2499.9238  2299.9886  2011.3442   2499.8628  2299.9580  2035.3396 
  2599.9086  2299.9886  2013.0894   2599.8475  2299.9580  2037.0848 
  2699.8934  2299.9886  2014.8346   2699.8323  2299.9580  2038.8301 
  2799.8782  2299.9886  2016.5799   2799.8171  2299.9580  2040.5753 
  2899.8629  2299.9886  2018.3251   2899.8018  2299.9580  2042.3206 
  2999.8477  2299.9886  2020.0704   2999.7866  2299.9580  2044.0658 
  3099.8325  2299.9886  2021.8156   3099.7714  2299.9580  2045.8110 
  3199.8172  2299.9886  2023.5608   3199.7562  2299.9580  2047.5563 
  2000.0000  2399.9848  1996.6906   1999.9389  2399.9542  2020.6860 
  2099.9848  2399.9848  1998.4359   2099.9237  2399.9542  2022.4313 
  2199.9695  2399.9848  2000.1811   2199.9085  2399.9542  2024.1765 
  2299.9543  2399.9848  2001.9263   2299.8932  2399.9542  2025.9218 
  2399.9391  2399.9848  2010.4716   2399.8780  2399.9542  2034.4670 
  2499.9238  2399.9848  2012.2168   2499.8628  2399.9542  2036.2122 
  2599.9086  2399.9848  2013.9621   2599.8475  2399.9542  2037.9575 
  2699.8934  2399.9848  2015.7073   2699.8323  2399.9542  2039.7027 
  2799.8782  2399.9848  2017.4525   2799.8171  2399.9542  2041.4480 
  2899.8629  2399.9848  2019.1978   2899.8018  2399.9542  2043.1932 
  2999.8477  2399.9848  2020.9430   2999.7866  2399.9542  2044.9385 
  3099.8325  2399.9848  2022.6883   3099.7714  2399.9542  2046.6837 
  3199.8172  2399.9848  2024.4335   3199.7562  2399.9542  2048.4289 
  2000.0000  2499.9810  1997.5633   1999.9389  2499.9504  2021.5587 
  2099.9848  2499.9810  1999.3085   2099.9237  2499.9504  2023.3039 
  2199.9695  2499.9810  2001.0537   2199.9085  2499.9504  2025.0492 
  2299.9543  2499.9810  2002.7990   2299.8932  2499.9504  2026.7944 
  2399.9391  2499.9810  2011.3442   2399.8780  2499.9504  2035.3397 
  2499.9238  2499.9810  2013.0895   2499.8628  2499.9504  2037.0849 
  2599.9086  2499.9810  2014.8347   2599.8475  2499.9504  2038.8301 
  2699.8934  2499.9810  2016.5800   2699.8323  2499.9504  2040.5754 
  2799.8782  2499.9810  2018.3252   2799.8171  2499.9504  2042.3206 
  2899.8629  2499.9810  2020.0704   2899.8018  2499.9504  2044.0659 
  2999.8477  2499.9810  2021.8157   2999.7866  2499.9504  2045.8111 
  3099.8325  2499.9810  2023.5609   3099.7714  2499.9504  2047.5563 
  3199.8172  2499.9810  2025.3062   3199.7562  2499.9504  2049.3016 
  2000.0000  2599.9772  2005.2359   1999.9389  2599.9466  2029.2314 
  2099.9848  2599.9772  2006.9812   2099.9237  2599.9466  2030.9766 
  2199.9695  2599.9772  2008.7264   2199.9085  2599.9466  2032.7218 
  2299.9543  2599.9772  2010.4716   2299.8932  2599.9466  2034.4671 
  2399.9391  2599.9772  2012.2169   2399.8780  2599.9466  2036.2123 
  2499.9238  2599.9772  2013.9621   2499.8628  2599.9466  2037.9576 
  2599.9086  2599.9772  2015.7074   2599.8475  2599.9466  2039.7028 
  2699.8934  2599.9772  2017.4526   2699.8323  2599.9466  2041.4480 
  2799.8782  2599.9772  2019.1978   2799.8171  2599.9466  2043.1933 
  2899.8629  2599.9772  2020.9431   2899.8018  2599.9466  2044.9385 
  2999.8477  2599.9772  2022.6883   2999.7866  2599.9466  2046.6838 
  3099.8325  2599.9772  2024.4336   3099.7714  2599.9466  2048.4290 
  3199.8172  2599.9772  2026.1788   3199.7562  2599.9466  2050.1742 
  2000.0000  2699.9733  2006.1086   1999.9389  2699.9428  2030.1040 
  2099.9848  2699.9733  2007.8538   2099.9237  2699.9428  2031.8492 
  2199.9695  2699.9733  2009.5991   2199.9085  2699.9428  2033.5945 
  2299.9543  2699.9733  2011.3443   2299.8932  2699.9428  2035.3397 
  2399.9391  2699.9733  2013.0895   2399.8780  2699.9428  2037.0850 
  2499.9238  2699.9733  2014.8348   2499.8628  2699.9428  2038.8302 
  2599.9086  2699.9733  2016.5800   2599.8475  2699.9428  2040.5754 
  2699.8934  2699.9733  2018.3253   2699.8323  2699.9428  2042.3207 
  2799.8782  2699.9733  2020.0705   2799.8171  2699.9428  2044.0659 
  2899.8629  2699.9733  2021.8157   2899.8018  2699.9428  2045.8112 
  2999.8477  2699.9733  2023.5610   2999.7866  2699.9428  2047.5564 
  3099.8325  2699.9733  2025.3062   3099.7714  2699.9428  2049.3017 
  3199.8172  2699.9733  2027.0515   3199.7562  2699.9428  2051.0469 
  2000.0000  2799.9695  2006.9812   1999.9389  2799.9390  2030.9767 
  2099.9848  2799.9695  2008.7265   2099.9237  2799.9390  2032.7219 
  2199.9695  2799.9695  2010.4717   2199.9085  2799.9390  2034.4671 
  2299.9543  2799.9695  2012.2170   2299.8932  2799.9390  2036.2124 
  2399.9391  2799.9695  2013.9622   2399.8780  2799.9390  2037.9576 
  2499.9238  2799.9695  2015.7074   2499.8628  2799.9390  2039.7029 
  2599.9086  2799.9695  2017.4527   2599.8475  2799.9390  2041.4481 
  2699.8934  2799.9695  2019.1979   2699.8323  2799.9390  2043.1933 
  2799.8782  2799.9695  2020.9432   2799.8171  2799.9390  2044.9386 
  2899.8629  2799.9695  2022.6884   2899.8018  2799.9390  2046.6838 
  2999.8477  2799.9695  2024.4336   2999.7866  2799.9390  2048.4291 
  3099.8325  2799.9695  2026.1789   3099.7714  2799.9390  2050.1743 
  3199.8172  2799.9695  2027.9241   3199.7562  2799.9390  2051.9195 
  2000.0000  2899.9657  2007.8539   1999.9389  2899.9352  2031.8493 
  2099.9848  2899.9657  2009.5991   2099.9237  2899.9352  2033.5946 
  2199.9695  2899.9657  2011.3444   2199.9085  2899.9352  2035.3398 
  2299.9543  2899.9657  2013.0896   2299.8932  2899.9352  2037.0850 
  2399.9391  2899.9657  2014.8348   2399.8780  2899.9352  2038.8303 
  2499.9238  2899.9657  2016.5801   2499.8628  2899.9352  2040.5755 
  2599.9086  2899.9657  2018.3253   2599.8475  2899.9352  2042.3208 
  2699.8934  2899.9657  2020.0706   2699.8323  2899.9352  2044.0660 
  2799.8782  2899.9657  2021.8158   2799.8171  2899.9352  2045.8112 
  2899.8629  2899.9657  2023.5610   2899.8018  2899.9352  2047.5565 
  2999.8477  2899.9657  2025.3063   2999.7866  2899.9352  2049.3017 
  3099.8325  2899.9657  2027.0515   3099.7714  2899.9352  2051.0470 
  3199.8172  2899.9657  2028.7968   3199.7562  2899.9352  2052.7922 
  2000.0000  2999.9619  2008.7265   1999.9389  2999.9314  2032.7220 
  2099.9848  2999.9619  2010.4718   2099.9237  2999.9314  2034.4672 
  2199.9695  2999.9619  2012.2170   2199.9085  2999.9314  2036.2124 
  2299.9543  2999.9619  2013.9623   2299.8932  2999.9314  2037.9577 
  2399.9391  2999.9619  2015.7075   2399.8780  2999.9314  2039.7029 
  2499.9238  2999.9619  2017.4527   2499.8628  2999.9314  2041.4482 
  2599.9086  2999.9619  2019.1980   2599.8475  2999.9314  2043.1934 
  2699.8934  2999.9619  2020.9432   2699.8323  2999.9314  2044.9387 
  2799.8782  2999.9619  2022.6885   2799.8171  2999.9314  2046.6839 
  2899.8629  2999.9619  2024.4337   2899.8018  2999.9314  2048.4291 
  2999.8477  2999.9619  2026.1789   2999.7866  2999.9314  2050.1744 
  3099.8325  2999.9619  2027.9242   3099.7714  2999.9314  2051.9196 
  3199.8172  2999.9619  2029.6694   3199.7562  2999.9314  2053.6649 
  2000.0000  3099.9581  2009.5992   1999.9389  3099.9276  2033.5946 
  2099.9848  3099.9581  2011.3444   2099.9237  3099.9276  2035.3399 
  2199.9695  3099.9581  2013.0897   2199.9085  3099.9276  2037.0851 
  2299.9543  3099.9581  2014.8349   2299.8932  3099.9276  2038.8303 
  2399.9391  3099.9581  2016.5802   2399.8780  3099.9276  2040.5756 
  2499.9238  3099.9581  2018.3254   2499.8628  3099.9276  2042.3208 
  2599.9086  3099.9581  2020.0706   2599.8475  3099.9276  2044.0661 
  2699.8934  3099.9581  2021.8159   2699.8323  3099.9276  2045.8113 
  2799.8782  3099.9581  2023.5611   2799.8171  3099.9276  2047.5565 
  2899.8629  3099.9581  2025.3064   2899.8018  3099.9276  2049.3018 
  2999.8477  3099.9581  2027.0516   2999.7866  3099.9276  2051.0470 
  3099.8325  3099.9581  2028.7968   3099.7714  3099.9276  2052.7923 
  3199.8172  3099.9581  2030.5421   3199.7562  3099.9276  2054.5375 
  2000.0000  3199.9543  2010.4718   1999.9389  3199.9238  2034.4673 
  2099.9848  3199.9543  2012.2171   2099.9237  3199.9238  2036.2125 
  2199.9695  3199.9543  2013.9623   2199.9085  3199.9238  2037.9578 
  2299.9543  3199.9543  2015.7076   2299.8932  3199.9238  2039.7030 
  2399.9391  3199.9543  2017.4528   2399.8780  3199.9238  2041.4482 
  2499.9238  3199.9543  2019.1980   2499.8628  3199.9238  2043.1935 
  2599.9086  3199.9543  2020.9433   2599.8475  3199.9238  2044.9387 
  2699.8934  3199.9543  2022.6885   2699.8323  3199.9238  2046.6840 
  2799.8782  3199.9543  2024.4338   2799.8171  3199.9238  2048.4292 
  2899.8629  3199.9543  2026.1790   2899.8018  3199.9238  2050.1744 
  2999.8477  3199.9543  2027.9242   2999.7866  3199.9238  2051.9197 
  3099.8325  3199.9543  2029.6695   3099.7714  3199.9238  2053.6649 
  3199.8172  3199.9543  2031.4147   3199.7562  3199.9238  2055.4102 
  2000.0000  3299.9505  2011.3445   1999.9389  3299.9200  2035.3399 
  2099.9848  3299.9505  2013.0897   2099.9237  3299.9200  2037.0852 
  2199.9695  3299.9505  2014.8350   2199.9085  3299.9200  2038.8304 
  2299.9543  3299.9505  2016.5802   2299.8932  3299.9200  2040.5756 
  2399.9391  3299.9505  2018.3255   2399.8780  3299.9200  2042.3209 
  2499.9238  3299.9505  2020.0707   2499.8628  3299.9200  2044.0661 
  2599.9086  3299.9505  2021.8159   2599.8475  3299.9200  2045.8114 
  2699.8934  3299.9505  2023.5612   2699.8323  3299.9200  2047.5566 
  2799.8782  3299.9505  2025.3064   2799.8171  3299.9200  2049.3019 
  2899.8629  3299.9505  2027.0517   2899.8018  3299.9200  2051.0471 
  2999.8477  3299.9505  2028.7969   2999.7866  3299.9200  2052.7923 
  3099.8325  3299.9505  2030.5421   3099.7714  3299.9200  2054.5376 
  3199.8172  3299.9505  2032.2874   3199.7562  3299.9200  2056.2828 
/ 

ZCORN
  1993.2000  1994.9452  1994.9452  1996.6905  1996.6905  1998.4357
  1998.4357  2000.1810  2006.9810  2008.7262  2008.7262  2010.4714
  2010.4714  2012.2167  2012.2167  2013.9619  2013.9619  2015.7072
  2015.7072  2017.4524  2017.4524  2019.1976  2019.1976  2020.9429
  1994.0727  1995.8179  1995.8179  1997.5631  1997.5631  1999.3084
  1999.3084  2001.0536  2007.8536  2009.5989  2009.5989  2011.3441
  2011.3441  2013.0893  2013.0893  2014.8346  2014.8346  2016.5798
  2016.5798  2018.3251  2018.3251  2020.0703  2020.0703  2021.8155
  1994.0727  1995.8179  1995.8179  1997.5631  1997.5631  1999.3084
  1999.3084  2001.0536  2007.8536  2009.5989  2009.5989  2011.3441
  2011.3441  2013.0893  2013.0893  2014.8346  2014.8346  2016.5798
  2016.5798  2018.3251  2018.3251  2020.0703  2020.0703  2021.8155
  1994.9453  1996.6905  1996.6905  1998.4358  1998.4358  2000.1810
  2000.1810  2001.9263  2008.7263  2010.4715  2010.4715  2012.2168
  2012.2168  2013.9620  2013.9620  2015.7072  2015.7072  2017.4525
  2017.4525  2019.1977  2019.1977  2020.9430  2020.9430  2022.6882
  1994.9453  1996.6905  1996.6905  1998.4358  1998.4358  2000.1810
  2000.1810  2001.9263  2008.7263  2010.4715  2010.4715  2012.2168
  2012.2168  2013.9620  2013.9620  2015.7072  2015.7072  2017.4525
  2017.4525  2019.1977  2019.1977  2020.9430  2020.9430  2022.6882
  1995.8180  1997.5632  1997.5632  1999.3084  1999.3084  2001.0537
  2001.0537  2002.7989  2009.5989  2011.3442  2011.3442  2013.0894
  2013.0894  2014.8346  2014.8346  2016.5799  2016.5799  2018.3251
  2018.3251  2020.0704  2020.0704  2021.8156  2021.8156  2023.5608
  1995.8180  1997.5632  1997.5632  1999.3084  1999.3084  2001.0537
  2001.0537  2002.7989  2009.5989  2011.3442  2011.3442  2013.0894
  2013.0894  2014.8346  2014.8346  2016.5799  2016.5799  2018.3251
  2018.3251  2020.0704  2020.0704  2021.8156  2021.8156  2023.5608
  1996.6906  1998.4359  1998.4359  2000.1811  2000.1811  2001.9263
  2001.9263  2003.6716  2010.4716  2012.2168  2012.2168  2013.9621
  2013.9621  2015.7073  2015.7073  2017.4525  2017.4525  2019.1978
  2019.1978  2020.9430  2020.9430  2022.6883  2022.6883  2024.4335
  1996.6906  1998.4359  1998.4359  2000.1811  2000.1811  2001.9263
  2001.9263  2003.6716  2010.4716  2012.2168  2012.2168  2013.9621
  2013.9621  2015.7073  2015.7073  2017.4525  2017.4525  2019.1978
  2019.1978  2020.9430  2020.9430  2022.6883  2022.6883  2024.4335
  1997.5633  1999.3085  1999.3085  2001.0537  2001.0537  2002.7990
  2002.7990  2004.5442  2011.3442  2013.0895  2013.0895  2014.8347
  2014.8347  2016.5800  2016.5800  2018.3252  2018.3252  2020.0704
  2020.0704  2021.8157  2021.8157  2023.5609  2023.5609  2025.3062
  1997.5633  1999.3085  1999.3085  2001.0537  2001.0537  2002.7990
  2002.7990  2004.5442  2011.3442  2013.0895  2013.0895  2014.8347
  2014.8347  2016.5800  2016.5800  2018.3252  2018.3252  2020.0704
  2020.0704  2021.8157  2021.8157  2023.5609  2023.5609  2025.3062
  1998.4359  2000.1812  2000.1812  2001.9264  2001.9264  2003.6716
  2003.6716  2005.4169  2012.2169  2013.9621  2013.9621  2015.7074
  2015.7074  2017.4526  2017.4526  2019.1978  2019.1978  2020.9431
  2020.9431  2022.6883  2022.6883  2024.4336  2024.4336  2026.1788
  2005.2359  2006.9812  2006.9812  2008.7264  2008.7264  2010.4716
  2010.4716  2012.2169  2012.2169  2013.9621  2013.9621  2015.7074
  2015.7074  2017.4526  2017.4526  2019.1978  2019.1978  2020.9431
  2020.9431  2022.6883  2022.6883  2024.4336  2024.4336  2026.1788
  2006.1086  2007.8538  2007.8538  2009.5991  2009.5991  2011.3443
  2011.3443  2013.0895  2013.0895  2014.8348  2014.8348  2016.5800
  2016.5800  2018.3253  2018.3253  2020.0705  2020.0705  2021.8157
  2021.8157  2023.5610  2023.5610  2025.3062  2025.3062  2027.0515
  2006.1086  2007.8538  2007.8538  2009.5991  2009.5991  2011.3443
  2011.3443  2013.0895  2013.0895  2014.8348  2014.8348  2016.5800
  2016.5800  2018.3253  2018.3253  2020.0705  2020.0705  2021.8157
  2021.8157  2023.5610  2023.5610  2025.3062  2025.3062  2027.0515
  2006.9812  2008.7265  2008.7265  2010.4717  2010.4717  2012.2170
  2012.2170  2013.9622  2013.9622  2015.7074  2015.7074  2017.4527
  2017.4527  2019.1979  2019.1979  2020.9432  2020.9432  2022.6884
  2022.6884  2024.4336  2024.4336  2026.1789  2026.1789  2027.9241
  2006.9812  2008.7265  2008.7265  2010.4717  2010.4717  2012.2170
  2012.2170  2013.9622  2013.9622  2015.7074  2015.7074  2017.4527
  2017.4527  2019.1979  2019.1979  2020.9432  2020.9432  2022.6884
  2022.6884  2024.4336  2024.4336  2026.1789  2026.1789  2027.9241
  2007.8539  2009.5991  2009.5991  2011.3444  2011.3444  2013.0896
  2013.0896  2014.8348  2014.8348  2016.5801  2016.5801  2018.3253
  2018.3253  2020.0706  2020.0706  2021.8158  2021.8158  2023.5610
  2023.5610  2025.3063  2025.3063  2027.0515  2027.0515  2028.7968
  2007.8539  2009.5991  2009.5991  2011.3444  2011.3444  2013.0896
  2013.0896  2014.8348  2014.8348  2016.5801  2016.5801  2018.3253
  2018.3253  2020.0706  2020.0706  2021.8158  2021.8158  2023.5610
  2023.5610  2025.3063  2025.3063  2027.0515  2027.0515  2028.7968
  2008.7265  2010.4718  2010.4718  2012.2170  2012.2170  2013.9623
  2013.9623  2015.7075  2015.7075  2017.4527  2017.4527  2019.1980
  2019.1980  2020.9432  2020.9432  2022.6885  2022.6885  2024.4337
  2024.4337  2026.1789  2026.1789  2027.9242  2027.9242  2029.6694
  2008.7265  2010.4718  2010.4718  2012.2170  2012.2170  2013.9623
  2013.9623  2015.7075  2015.7075  2017.4527  2017.4527  2019.1980
  2019.1980  2020.9432  2020.9432  2022.6885  2022.6885  2024.4337
  2024.4337  2026.1789  2026.1789  2027.9242  2027.9242  2029.6694
  2009.5992  2011.3444  2011.3444  2013.0897  2013.0897  2014.8349
  2014.8349  2016.5802  2016.5802  2018.3254  2018.3254  2020.0706
  2020.0706  2021.8159  2021.8159  2023.5611  2023.5611  2025.3064
  2025.3064  2027.0516  2027.0516  2028.7968  2028.7968  2030.5421
  2009.5992  2011.3444  2011.3444  2013.0897  2013.0897  2014.8349
  2014.8349  2016.5802  2016.5802  2018.3254  2018.3254  2020.0706
  2020.0706  2021.8159  2021.8159  2023.5611  2023.5611  2025.3064
  2025.3064  2027.0516  2027.0516  2028.7968  2028.7968  2030.5421
  2010.4718  2012.2171  2012.2171  2013.9623  2013.9623  2015.7076
  2015.7076  2017.4528  2017.4528  2019.1980  2019.1980  2020.9433
  2020.9433  2022.6885  2022.6885  2024.4338  2024.4338  2026.1790
  2026.1790  2027.9242  2027.9242  2029.6695  2029.6695  2031.4147
  2010.4718  2012.2171  2012.2171  2013.9623  2013.9623  2015.7076
  2015.7076  2017.4528  2017.4528  2019.1980  2019.1980  2020.9433
  2020.9433  2022.6885  2022.6885  2024.4338  2024.4338  2026.1790
  2026.1790  2027.9242  2027.9242  2029.6695  2029.6695  2031.4147
  2011.3445  2013.0897  2013.0897  2014.8350  2014.8350  2016.5802
  2016.5802  2018.3255  2018.3255  2020.0707  2020.0707  2021.8159
  2021.8159  2023.5612  2023.5612  2025.3064  2025.3064  2027.0517
  2027.0517  2028.7969  2028.7969  2030.5421  2030.5421  2032.2874
  1995.6995  1997.4448  1997.4448  1999.1900  1999.1900  2000.9352
  2000.9352  2002.6805  2009.4805  2011.2257  2011.2257  2012.9710
  2012.9710  2014.7162  2014.7162  2016.4614  2016.4614  2018.2067
  2018.2067  2019.9519  2019.9519  2021.6972  2021.6972  2023.4424
  1996.5722  1998.3174  1998.3174  2000.0627  2000.0627  2001.8079
  2001.8079  2003.5531  2010.3531  2012.0984  2012.0984  2013.8436
  2013.8436  2015.5889  2015.5889  2017.3341  2017.3341  2019.0793
  2019.0793  2020.8246  2020.8246  2022.5698  2022.5698  2024.3151
  1996.5722  1998.3174  1998.3174  2000.0627  2000.0627  2001.8079
  2001.8079  2003.5531  2010.3531  2012.0984  2012.0984  2013.8436
  2013.8436  2015.5889  2015.5889  2017.3341  2017.3341  2019.0793
  2019.0793  2020.8246  2020.8246  2022.5698  2022.5698  2024.3151
  1997.4448  1999.1901  1999.1901  2000.9353  2000.9353  2002.6806
  2002.6806  2004.4258  2011.2258  2012.9710  2012.9710  2014.7163
  2014.7163  2016.4615  2016.4615  2018.2068  2018.2068  2019.9520
  2019.9520  2021.6972  2021.6972  2023.4425  2023.4425  2025.1877
  1997.4448  1999.1901  1999.1901  2000.9353  2000.9353  2002.6806
  2002.6806  2004.4258  2011.2258  2012.9710  2012.9710  2014.7163
  2014.7163  2016.4615  2016.4615  2018.2068  2018.2068  2019.9520
  2019.9520  2021.6972  2021.6972  2023.4425  2023.4425  2025.1877
  1998.3175  2000.0627  2000.0627  2001.8080  2001.8080  2003.5532
  2003.5532  2005.2984  2012.0984  2013.8437  2013.8437  2015.5889
  2015.5889  2017.3342  2017.3342  2019.0794  2019.0794  2020.8247
  2020.8247  2022.5699  2022.5699  2024.3151  2024.3151  2026.0604
  1998.3175  2000.0627  2000.0627  2001.8080  2001.8080  2003.5532
  2003.5532  2005.2984  2012.0984  2013.8437  2013.8437  2015.5889
  2015.5889  2017.3342  2017.3342  2019.0794  2019.0794  2020.8247
  2020.8247  2022.5699  2022.5699  2024.3151  2024.3151  2026.0604
  1999.1901  2000.9354  2000.9354  2002.6806  2002.6806  2004.4259
  2004.4259  2006.1711  2012.9711  2014.7163  2014.7163  2016.4616
  2016.4616  2018.2068  2018.2068  2019.9521  2019.9521  2021.6973
  2021.6973  2023.4425  2023.4425  2025.1878  2025.1878  2026.9330
  1999.1901  2000.9354  2000.9354  2002.6806  2002.6806  2004.4259
  2004.4259  2006.1711  2012.9711  2014.7163  2014.7163  2016.4616
  2016.4616  2018.2068  2018.2068  2019.9521  2019.9521  2021.6973
  2021.6973  2023.4425  2023.4425  2025.1878  2025.1878  2026.9330
  2000.0628  2001.8080  2001.8080  2003.5533  2003.5533  2005.2985
  2005.2985  2007.0438  2013.8438  2015.5890  2015.5890  2017.3342
  2017.3342  2019.0795  2019.0795  2020.8247  2020.8247  2022.5700
  2022.5700  2024.3152  2024.3152  2026.0604  2026.0604  2027.8057
  2000.0628  2001.8080  2001.8080  2003.5533  2003.5533  2005.2985
  2005.2985  2007.0438  2013.8438  2015.5890  2015.5890  2017.3342
  2017.3342  2019.0795  2019.0795  2020.8247  2020.8247  2022.5700
  2022.5700  2024.3152  2024.3152  2026.0604  2026.0604  2027.8057
  2000.9354  2002.6807  2002.6807  2004.4259  2004.4259  2006.1712
  2006.1712  2007.9164  2014.7164  2016.4616  2016.4616  2018.2069
  2018.2069  2019.9521  2019.9521  2021.6974  2021.6974  2023.4426
  2023.4426  2025.1879  2025.1879  2026.9331  2026.9331  2028.6783
  2007.7354  2009.4807  2009.4807  2011.2259  2011.2259  2012.9712
  2012.9712  2014.7164  2014.7164  2016.4616  2016.4616  2018.2069
  2018.2069  2019.9521  2019.9521  2021.6974  2021.6974  2023.4426
  2023.4426  2025.1879  2025.1879  2026.9331  2026.9331  2028.6783
  2008.6081  2010.3533  2010.3533  2012.0986  2012.0986  2013.8438
  2013.8438  2015.5891  2015.5891  2017.3343  2017.3343  2019.0795
  2019.0795  2020.8248  2020.8248  2022.5700  2022.5700  2024.3153
  2024.3153  2026.0605  2026.0605  2027.8057  2027.8057  2029.5510
  2008.6081  2010.3533  2010.3533  2012.0986  2012.0986  2013.8438
  2013.8438  2015.5891  2015.5891  2017.3343  2017.3343  2019.0795
  2019.0795  2020.8248  2020.8248  2022.5700  2022.5700  2024.3153
  2024.3153  2026.0605  2026.0605  2027.8057  2027.8057  2029.5510
  2009.4808  2011.2260  2011.2260  2012.9712  2012.9712  2014.7165
  2014.7165  2016.4617  2016.4617  2018.2070  2018.2070  2019.9522
  2019.9522  2021.6974  2021.6974  2023.4427  2023.4427  2025.1879
  2025.1879  2026.9332  2026.9332  2028.6784  2028.6784  2030.4236
  2009.4808  2011.2260  2011.2260  2012.9712  2012.9712  2014.7165
  2014.7165  2016.4617  2016.4617  2018.2070  2018.2070  2019.9522
  2019.9522  2021.6974  2021.6974  2023.4427  2023.4427  2025.1879
  2025.1879  2026.9332  2026.9332  2028.6784  2028.6784  2030.4236
  2010.3534  2012.0986  2012.0986  2013.8439  2013.8439  2015.5891
  2015.5891  2017.3344  2017.3344  2019.0796  2019.0796  2020.8248
  2020.8248  2022.5701  2022.5701  2024.3153  2024.3153  2026.0606
  2026.0606  2027.8058  2027.8058  2029.5511  2029.5511  2031.2963
  2010.3534  2012.0986  2012.0986  2013.8439  2013.8439  2015.5891
  2015.5891  2017.3344  2017.3344  2019.0796  2019.0796  2020.8248
  2020.8248  2022.5701  2022.5701  2024.3153  2024.3153  2026.0606
  2026.0606  2027.8058  2027.8058  2029.5511  2029.5511  2031.2963
  2011.2261  2012.9713  2012.9713  2014.7165  2014.7165  2016.4618
  2016.4618  2018.2070  2018.2070  2019.9523  2019.9523  2021.6975
  2021.6975  2023.4427  2023.4427  2025.1880  2025.1880  2026.9332
  2026.9332  2028.6785  2028.6785  2030.4237  2030.4237  2032.1689
  2011.2261  2012.9713  2012.9713  2014.7165  2014.7165  2016.4618
  2016.4618  2018.2070  2018.2070  2019.9523  2019.9523  2021.6975
  2021.6975  2023.4427  2023.4427  2025.1880  2025.1880  2026.9332
  2026.9332  2028.6785  2028.6785  2030.4237  2030.4237  2032.1689
  2012.0987  2013.8440  2013.8440  2015.5892  2015.5892  2017.3344
  2017.3344  2019.0797  2019.0797  2020.8249  2020.8249  2022.5702
  2022.5702  2024.3154  2024.3154  2026.0606  2026.0606  2027.8059
  2027.8059  2029.5511  2029.5511  2031.2964  2031.2964  2033.0416
  2012.0987  2013.8440  2013.8440  2015.5892  2015.5892  2017.3344
  2017.3344  2019.0797  2019.0797  2020.8249  2020.8249  2022.5702
  2022.5702  2024.3154  2024.3154  2026.0606  2026.0606  2027.8059
  2027.8059  2029.5511  2029.5511  2031.2964  2031.2964  2033.0416
  2012.9714  2014.7166  2014.7166  2016.4618  2016.4618  2018.2071
  2018.2071  2019.9523  2019.9523  2021.6976  2021.6976  2023.4428
  2023.4428  2025.1881  2025.1881  2026.9333  2026.9333  2028.6785
  2028.6785  2030.4238  2030.4238  2032.1690  2032.1690  2033.9143
  2012.9714  2014.7166  2014.7166  2016.4618  2016.4618  2018.2071
  2018.2071  2019.9523  2019.9523  2021.6976  2021.6976  2023.4428
  2023.4428  2025.1881  2025.1881  2026.9333  2026.9333  2028.6785
  2028.6785  2030.4238  2030.4238  2032.1690  2032.1690  2033.9143
  2013.8440  2015.5893  2015.5893  2017.3345  2017.3345  2019.0797
  2019.0797  2020.8250  2020.8250  2022.5702  2022.5702  2024.3155
  2024.3155  2026.0607  2026.0607  2027.8059  2027.8059  2029.5512
  2029.5512  2031.2964  2031.2964  2033.0417  2033.0417  2034.7869
  1995.6995  1997.4448  1997.4448  1999.1900  1999.1900  2000.9352
  2000.9352  2002.6805  2009.4805  2011.2257  2011.2257  2012.9710
  2012.9710  2014.7162  2014.7162  2016.4614  2016.4614  2018.2067
  2018.2067  2019.9519  2019.9519  2021.6972  2021.6972  2023.4424
  1996.5722  1998.3174  1998.3174  2000.0627  2000.0627  2001.8079
  2001.8079  2003.5531  2010.3531  2012.0984  2012.0984  2013.8436
  2013.8436  2015.5889  2015.5889  2017.3341  2017.3341  2019.0793
  2019.0793  2020.8246  2020.8246  2022.5698  2022.5698  2024.3151
  1996.5722  1998.3174  1998.3174  2000.0627  2000.0627  2001.8079
  2001.8079  2003.5531  2010.3531  2012.0984  2012.0984  2013.8436
  2013.8436  2015.5889  2015.5889  2017.3341  2017.3341  2019.0793
  2019.0793  2020.8246  2020.8246  2022.5698  2022.5698  2024.3151
  1997.4448  1999.1901  1999.1901  2000.9353  2000.9353  2002.6806
  2002.6806  2004.4258  2011.2258  2012.9710  2012.9710  2014.7163
  2014.7163  2016.4615  2016.4615  2018.2068  2018.2068  2019.9520
  2019.9520  2021.6972  2021.6972  2023.4425  2023.4425  2025.1877
  1997.4448  1999.1901  1999.1901  2000.9353  2000.9353  2002.6806
  2002.6806  2004.4258  2011.2258  2012.9710  2012.9710  2014.7163
  2014.7163  2016.4615  2016.4615  2018.2068  2018.2068  2019.9520
  2019.9520  2021.6972  2021.6972  2023.4425  2023.4425  2025.1877
  1998.3175  2000.0627  2000.0627  2001.8080  2001.8080  2003.5532
  2003.5532  2005.2984  2012.0984  2013.8437  2013.8437  2015.5889
  2015.5889  2017.3342  2017.3342  2019.0794  2019.0794  2020.8247
  2020.8247  2022.5699  2022.5699  2024.3151  2024.3151  2026.0604
  1998.3175  2000.0627  2000.0627  2001.8080  2001.8080  2003.5532
  2003.5532  2005.2984  2012.0984  2013.8437  2013.8437  2015.5889
  2015.5889  2017.3342  2017.3342  2019.0794  2019.0794  2020.8247
  2020.8247  2022.5699  2022.5699  2024.3151  2024.3151  2026.0604
  1999.1901  2000.9354  2000.9354  2002.6806  2002.6806  2004.4259
  2004.4259  2006.1711  2012.9711  2014.7163  2014.7163  2016.4616
  2016.4616  2018.2068  2018.2068  2019.9521  2019.9521  2021.6973
  2021.6973  2023.4425  2023.4425  2025.1878  2025.1878  2026.9330
  1999.1901  2000.9354  2000.9354  2002.6806  2002.6806  2004.4259
  2004.4259  2006.1711  2012.9711  2014.7163  2014.7163  2016.4616
  2016.4616  2018.2068  2018.2068  2019.9521  2019.9521  2021.6973
  2021.6973  2023.4425  2023.4425  2025.1878  2025.1878  2026.9330
  2000.0628  2001.8080  2001.8080  2003.5533  2003.5533  2005.2985
  2005.2985  2007.0438  2013.8438  2015.5890  2015.5890  2017.3342
  2017.3342  2019.0795  2019.0795  2020.8247  2020.8247  2022.5700
  2022.5700  2024.3152  2024.3152  2026.0604  2026.0604  2027.8057
  2000.0628  2001.8080  2001.8080  2003.5533  2003.5533  2005.2985
  2005.2985  2007.0438  2013.8438  2015.5890  2015.5890  2017.3342
  2017.3342  2019.0795  2019.0795  2020.8247  2020.8247  2022.5700
  2022.5700  2024.3152  2024.3152  2026.0604  2026.0604  2027.8057
  2000.9354  2002.6807  2002.6807  2004.4259  2004.4259  2006.1712
  2006.1712  2007.9164  2014.7164  2016.4616  2016.4616  2018.2069