NOECHO

-- =============================================================================
-- 
-- Exported from ECL_DROGON_EXERCISE_32-0
-- 
-- Exported by user jilo from RMS12 at 2021-10-12 14:15:21
-- 
-- =============================================================================

MAPUNITS
'METRES  ' /

MAPAXES
456063.688 5939440.693
456063.688 5926551.000
467489.343 5926551.000 /

GRIDUNIT
'METRES  ' '        ' /

SPECGRID
  7  5  29   1  F  /

GDORIENT
INC INC INC DOWN RIGHT /

COORD
     5007.667      6495.215    1665.469      5007.617      6448.770    1708.282
     5145.051      6578.955    1652.532      5133.406      6521.695    1697.259
     5283.841      6659.634    1644.236      5258.211      6593.008    1688.727
     5419.468      6733.112    1641.250      5379.129      6658.270    1686.754
     5557.759      6812.984    1633.714      5504.906      6733.821    1682.329
     5684.324      6878.229    1633.122      5637.405      6816.880    1675.803
     5799.612      6934.035    1639.566      5760.408      6884.982    1679.595
     5915.359      6992.589    1645.275      5876.558      6942.104    1686.828
     5083.864      6368.650    1662.556      5082.326      6322.958    1705.482
     5220.848      6449.162    1653.150      5208.603      6393.477    1697.727
     5358.222      6528.183    1646.587      5334.348      6465.219    1690.257
     5490.971      6598.574    1646.138      5456.335      6529.681    1690.300
     5625.839      6676.740    1640.047      5582.391      6602.545    1688.421
     5753.196      6745.586    1637.854      5716.500      6685.984    1681.578
     5871.137      6802.111    1644.313      5842.627      6752.857    1685.762
     6008.833      6892.045    1622.069      5961.713      6808.077    1694.085
     5159.267      6237.803    1663.286      5157.146      6193.684    1706.586
     5295.278      6316.351    1656.160      5283.436      6263.110    1700.922
     5431.395      6394.565    1650.456      5409.489      6335.027    1694.424
     5563.021      6464.414    1651.279      5532.401      6399.971    1695.596
     5695.052      6539.246    1648.007      5659.160      6472.182    1694.729
     5822.686      6609.179    1646.077      5791.313      6550.755    1690.944
     5944.152      6669.013    1650.533      5920.223      6619.446    1693.237
     6081.528      6764.393    1622.434      6045.343      6678.116    1698.224
     5234.174      6105.463    1665.254      5231.872      6064.659    1708.487
     5369.135      6182.357    1660.145      5358.442      6134.398    1703.938
     5503.503      6258.298    1656.438      5484.247      6204.704    1699.911
     5634.836      6329.429    1657.278      5608.092      6271.050    1701.416
     5766.128      6403.446    1655.200      5735.030      6343.492    1700.542
     5894.661      6473.673    1654.101      5862.931      6416.968    1699.154
     6018.461      6537.205    1655.899      5985.580      6484.035    1699.951
     6168.717      6640.912    1622.475      6097.088      6540.818    1701.809
     5308.824      5972.257    1668.029      5306.381      5935.746    1711.723
     5443.159      6049.416    1663.086      5433.459      6007.389    1706.601
     5576.706      6124.881    1660.306      5559.813      6078.188    1703.389
     5707.886      6196.968    1661.148      5684.804      6146.359    1704.513
     5838.546      6270.333    1660.140      5811.519      6218.182    1704.054
     5966.346      6339.361    1660.827      5936.251      6287.285    1705.073
     6091.410      6405.398    1661.136      6054.935      6352.302    1705.893
     6253.271      6517.758    1621.176      6160.819      6409.545    1706.140
     5383.217      5837.693    1672.416      5380.741      5807.629    1715.877
     5516.958      5915.471    1666.622      5508.217      5880.771    1709.971
     5650.083      5991.602    1663.539      5635.088      5952.374    1706.681
     5781.336      6065.178    1663.625      5760.626      6021.343    1707.446
     5911.426      6138.548    1663.267      5887.487      6092.728    1706.817
     6038.260      6207.313    1664.955      6013.070      6160.383    1708.667
     6163.785      6274.180    1665.280      6136.993      6225.673    1709.636
     6321.062      6393.139    1618.321      6253.567      6284.635    1709.245
  /

ZCORN
   1665.469    1652.532    1652.532    1644.236    1644.236    1641.250 
   1641.250    1633.714    1633.714    1633.122    1633.122    1639.566 
   1639.566    1645.275 
   1662.556    1653.150    1653.150    1646.587    1646.587    1646.138 
   1646.138    1640.047    1640.047    1637.854    1637.854    1644.313 
   1644.313    1650.422 
   1662.556    1653.150    1653.150    1646.587    1646.587    1646.138 
   1646.138    1640.047    1640.047    1637.854    1637.854    1644.313 
   1644.313    1650.422 
   1663.286    1656.160    1656.160    1650.456    1650.456    1651.279 
   1651.279    1648.007    1648.007    1646.077    1646.077    1650.533 
   1650.533    1654.389 
   1663.286    1656.160    1656.160    1650.456    1650.456    1651.279 
   1651.279    1648.007    1648.007    1646.077    1646.077    1650.533 
   1650.533    1654.389 
   1665.254    1660.145    1660.145    1656.438    1656.438    1657.278 
   1657.278    1655.200    1655.200    1654.101    1654.101    1655.899 
   1655.899    1657.184 
   1665.254    1660.145    1660.145    1656.438    1656.438    1657.278 
   1657.278    1655.200    1655.200    1654.101    1654.101    1655.899 
   1655.899    1657.184 
   1668.029    1663.086    1663.086    1660.306    1660.306    1661.148 
   1661.148    1660.140    1660.140    1660.827    1660.827    1661.136 
   1661.136    1660.956 
   1668.029    1663.086    1663.086    1660.306    1660.306    1661.148 
   1661.148    1660.140    1660.140    1660.827    1660.827    1661.136 
   1661.136    1660.956 
   1672.416    1666.622    1666.622    1663.539    1663.539    1663.625 
   1663.625    1663.267    1663.267    1664.955    1664.955    1665.280 
   1665.280    1664.124 
   1667.183    1654.334    1654.334    1646.029    1646.029    1643.120 
   1643.120    1635.673    1635.673    1634.860    1634.860    1641.220 
   1641.220    1647.000 
   1664.263    1654.932    1654.932    1648.336    1648.336    1647.936 
   1647.936    1642.009    1642.009    1639.630    1639.630    1646.008 
   1646.008    1652.202    1664.263    1654.932    1654.932    1648.336 
   1648.336    1647.936    1647.936    1642.009    1642.009    1639.630 
   1639.630    1646.008    1646.008    1652.202 
   1664.991    1657.932    1657.932    1652.201    1652.201    1653.059 
   1653.059    1649.882    1649.882    1647.877    1647.877    1652.262 
   1652.262    1656.179    1664.991    1657.932    1657.932    1652.201 
   1652.201    1653.059    1653.059    1649.882    1649.882    1647.877 
   1647.877    1652.262    1652.262    1656.179 
   1666.946    1661.864    1661.864    1658.150    1658.150    1659.030 
   1659.030    1657.004    1657.004    1655.897    1655.897    1657.670 
   1657.670    1658.994    1666.946    1661.864    1661.864    1658.150 
   1658.150    1659.030    1659.030    1657.004    1657.004    1655.897 
   1655.897    1657.670    1657.670    1658.994 
   1669.729    1664.780    1664.780    1661.992    1661.992    1662.853 
   1662.853    1661.874    1661.874    1662.577    1662.577    1662.921 
   1662.921    1662.784    1669.729    1664.780    1664.780    1661.992 
   1661.992    1662.853    1662.853    1661.874    1661.874    1662.577 
   1662.577    1662.921    1662.921    1662.784 
   1674.091    1668.298    1668.298    1665.220    1665.220    1665.330 
   1665.330    1664.970    1664.970    1666.667    1666.667    1667.032 
   1667.032    1665.921    1667.183    1654.334    1654.334    1646.029 
   1646.029    1643.120    1643.120    1635.673    1635.673    1634.860 
   1634.860    1641.220    1641.220    1647.000 
   1664.263    1654.932    1654.932    1648.336    1648.336    1647.936 
   1647.936    1642.009    1642.009    1639.630    1639.630    1646.008 
   1646.008    1652.202 
   1664.263    1654.932    1654.932    1648.336    1648.336    1647.936 
   1647.936    1642.009    1642.009    1639.630    1639.630    1646.008 
   1646.008    1652.202 
   1664.991    1657.932    1657.932    1652.201    1652.201    1653.059 
   1653.059    1649.882    1649.882    1647.877    1647.877    1652.262 
   1652.262    1656.179 
   1664.991    1657.932    1657.932    1652.201    1652.201    1653.059 
   1653.059    1649.882    1649.882    1647.877    1647.877    1652.262 
   1652.262    1656.179 
   1666.946    1661.864    1661.864    1658.150    1658.150    1659.030 
   1659.030    1657.004    1657.004    1655.897    1655.897    1657.670 
   1657.670    1658.994 
   1666.946    1661.864    1661.864    1658.150    1658.150    1659.030 
   1659.030    1657.004    1657.004    1655.897    1655.897    1657.670 
   1657.670    1658.994 
   1669.729    1664.780    1664.780    1661.992    1661.992    1662.853 
   1662.853    1661.874    1661.874    1662.577    1662.577    1662.921 
   1662.921    1662.784 
   1669.729    1664.780    1664.780    1661.992    1661.992    1662.853 
   1662.853    1661.874    1661.874    1662.577    1662.577    1662.921 
   1662.921    1662.784 
   1674.091    1668.298    1668.298    1665.220    1665.220    1665.330 
   1665.330    1664.970    1664.970    1666.667    1666.667    1667.032 
   1667.032    1665.921 
   1668.898    1656.136    1656.136    1647.822    1647.822    1644.989 
   1644.989    1637.631    1637.631    1636.598    1636.598    1642.874 
   1642.874    1648.725 
   1665.969    1656.713    1656.713    1650.084    1650.084    1649.735 
   1649.735    1643.971    1643.971    1641.407    1641.407    1647.702 
   1647.702    1653.981    1665.969    1656.713    1656.713    1650.084 
   1650.084    1649.735    1649.735    1643.971    1643.971    1641.407 
   1641.407    1647.702    1647.702    1653.981 
   1666.696    1659.703    1659.703    1653.946    1653.946    1654.840 
   1654.840    1651.756    1651.756    1649.677    1649.677    1653.991 
   1653.991    1657.968    1666.696    1659.703    1659.703    1653.946 
   1653.946    1654.840    1654.840    1651.756    1651.756    1649.677 
   1649.677    1653.991    1653.991    1657.968 
   1668.638    1663.583    1663.583    1659.863    1659.863    1660.782 
   1660.782    1658.809    1658.809    1657.692    1657.692    1659.440 
   1659.440    1660.803    1668.638    1663.583    1663.583    1659.863 
   1659.863    1660.782    1660.782    1658.809    1658.809    1657.692 
   1657.692    1659.440    1659.440    1660.803 
   1671.429    1666.474    1666.474    1663.677    1663.677    1664.557 
   1664.557    1663.609    1663.609    1664.327    1664.327    1664.707 
   1664.707    1664.613    1671.429    1666.474    1666.474    1663.677 
   1663.677    1664.557    1664.557    1663.609    1663.609    1664.327 
   1664.327    1664.707    1664.707    1664.613 
   1675.765    1669.974    1669.974    1666.901    1666.901    1667.035 
   1667.035    1666.674    1666.674    1668.379    1668.379    1668.783 
   1668.783    1667.718    1668.898    1656.136    1656.136    1647.822 
   1647.822    1644.989    1644.989    1637.631    1637.631    1636.598 
   1636.598    1642.874    1642.874    1648.725 
   1665.969    1656.713    1656.713    1650.084    1650.084    1649.735 
   1649.735    1643.971    1643.971    1641.407    1641.407    1647.702 
   1647.702    1653.981 
   1665.969    1656.713    1656.713    1650.084    1650.084    1649.735 
   1649.735    1643.971    1643.971    1641.407    1641.407    1647.702 
   1647.702    1653.981 
   1666.696    1659.703    1659.703    1653.946    1653.946    1654.840 
   1654.840    1651.756    1651.756    1649.677    1649.677    1653.991 
   1653.991    1657.968 
   1666.696    1659.703    1659.703    1653.946    1653.946    1654.840 
   1654.840    1651.756    1651.756    1649.677    1649.677    1653.991 
   1653.991    1657.968 
   1668.638    1663.583    1663.583    1659.863    1659.863    1660.782 
   1660.782    1658.809    1658.809    1657.692    1657.692    1659.440 
   1659.440    1660.803 
   1668.638    1663.583    1663.583    1659.863    1659.863    1660.782 
   1660.782    1658.809    1658.809    1657.692    1657.692    1659.440 
   1659.440    1660.803 
   1671.429    1666.474    1666.474    1663.677    1663.677    1664.557 
   1664.557    1663.609    1663.609    1664.327    1664.327    1664.707 
   1664.707    1664.613 
   1671.429    1666.474    1666.474    1663.677    1663.677    1664.557 
   1664.557    1663.609    1663.609    1664.327    1664.327    1664.707 
   1664.707    1664.613 
   1675.765    1669.974    1669.974    1666.901    1666.901    1667.035 
   1667.035    1666.674    1666.674    1668.379    1668.379    1668.783 
   1668.783    1667.718 
   1670.613    1657.938    1657.938    1649.614    1649.614    1646.859 
   1646.859    1639.589    1639.589    1638.337    1638.337    1644.528 
   1644.528    1650.450 
   1667.675    1658.495    1658.495    1651.833    1651.833    1651.533 
   1651.533    1645.933    1645.933    1643.184    1643.184    1649.397 
   1649.397    1655.761    1667.675    1658.495    1658.495    1651.833 
   1651.833    1651.533    1651.533    1645.933    1645.933    1643.184 
   1643.184    1649.397    1649.397    1655.761 
   1668.401    1661.475    1661.475    1655.691    1655.691    1656.620 
   1656.620    1653.631    1653.631    1651.478    1651.478    1655.720 
   1655.720    1659.758    1668.401    1661.475    1661.475    1655.691 
   1655.691    1656.620    1656.620    1653.631    1653.631    1651.478 
   1651.478    1655.720    1655.720    1659.758 
   1670.330    1665.301    1665.301    1661.575    1661.575    1662.535 
   1662.535    1660.613    1660.613    1659.488    1659.488    1661.211 
   1661.211    1662.612    1670.330    1665.301    1665.301    1661.575 
   1661.575    1662.535    1662.535    1660.613    1660.613    1659.488 
   1659.488    1661.211    1661.211    1662.612 
   1673.129    1668.168    1668.168    1665.363    1665.363    1666.262 
   1666.262    1665.343    1665.343    1666.078    1666.078    1666.492 
   1666.492    1666.442    1673.129    1668.168    1668.168    1665.363 
   1665.363    1666.262    1666.262    1665.343    1665.343    1666.078 
   1666.078    1666.492    1666.492    1666.442 
   1677.440    1671.649    1671.649    1668.583    1668.583    1668.739 
   1668.739    1668.377    1668.377    1670.090    1670.090    1670.535 
   1670.535    1669.515    1670.613    1657.938    1657.938    1649.614 
   1649.614    1646.859    1646.859    1639.589    1639.589    1638.337 
   1638.337    1644.528    1644.528    1650.450 
   1667.675    1658.495    1658.495    1651.833    1651.833    1651.533 
   1651.533    1645.933    1645.933    1643.184    1643.184    1649.397 
   1649.397    1655.761 
   1667.675    1658.495    1658.495    1651.833    1651.833    1651.533 
   1651.533    1645.933    1645.933    1643.184    1643.184    1649.397 
   1649.397    1655.761 
   1668.401    1661.475    1661.475    1655.691    1655.691    1656.620 
   1656.620    1653.631    1653.631    1651.478    1651.478    1655.720 
   1655.720    1659.758 
   1668.401    1661.475    1661.475    1655.691    1655.691    1656.620 
   1656.620    1653.631    1653.631    1651.478    1651.478    1655.720 
   1655.720    1659.758 
   1670.330    1665.301    1665.301    1661.575    1661.575    1662.535 
   1662.535    1660.613    1660.613    1659.488    1659.488    1661.211 
   1661.211    1662.612 
   1670.330    1665.301    1665.301    1661.575    1661.575    1662.535 
   1662.535    1660.613    1660.613    1659.488    1659.488    1661.211 
   1661.211    1662.612 
   1673.129    1668.168    1668.168    1665.363    1665.363    1666.262 
   1666.262    1665.343    1665.343    1666.078    1666.078    1666.492 
   1666.492    1666.442 
   1673.129    1668.168    1668.168    1665.363    1665.363    1666.262 
   1666.262    1665.343    1665.343    1666.078    1666.078    1666.492 
   1666.492    1666.442 
   1677.440    1671.649    1671.649    1668.583    1668.583    1668.739 
   1668.739    1668.377    1668.377    1670.090    1670.090    1670.535 
   1670.535    1669.515 
   1672.328    1659.740    1659.740    1651.407    1651.407    1648.728 
   1648.728    1641.548    1641.548    1640.075    1640.075    1646.182 
   1646.182    1652.175 
   1669.381    1660.277    1660.277    1653.582    1653.582    1653.332 
   1653.332    1647.896    1647.896    1644.961    1644.961    1651.092 
   1651.092    1657.540    1669.381    1660.277    1660.277    1653.582 
   1653.582    1653.332    1653.332    1647.896    1647.896    1644.961 
   1644.961    1651.092    1651.092    1657.540 
   1670.106    1663.246    1663.246    1657.436    1657.436    1658.400 
   1658.400    1655.505    1655.505    1653.278    1653.278    1657.449 
   1657.449    1661.547    1670.106    1663.246    1663.246    1657.436 
   1657.436    1658.400    1658.400    1655.505    1655.505    1653.278 
   1653.278    1657.449    1657.449    1661.547 
   1672.022    1667.020    1667.020    1663.288    1663.288    1664.287 
   1664.287    1662.418    1662.418    1661.284    1661.284    1662.981 
   1662.981    1664.422    1672.022    1667.020    1667.020    1663.288 
   1663.288    1664.287    1664.287    1662.418    1662.418    1661.284 
   1661.284    1662.981    1662.981    1664.422 
   1674.828    1669.862    1669.862    1667.048    1667.048    1667.966 
   1667.966    1667.078    1667.078    1667.828    1667.828    1668.277 
   1668.277    1668.271    1674.828    1669.862    1669.862    1667.048 
   1667.048    1667.966    1667.966    1667.078    1667.078    1667.828 
   1667.828    1668.277    1668.277    1668.271 
   1679.115    1673.325    1673.325    1670.264    1670.264    1670.444 
   1670.444    1670.080    1670.080    1671.802    1671.802    1672.287 
   1672.287    1671.313    1672.328    1659.740    1659.740    1651.407 
   1651.407    1648.728    1648.728    1641.548    1641.548    1640.075 
   1640.075    1646.182    1646.182    1652.175 
   1669.381    1660.277    1660.277    1653.582    1653.582    1653.332 
   1653.332    1647.896    1647.896    1644.961    1644.961    1651.092 
   1651.092    1657.540 
   1669.381    1660.277    1660.277    1653.582    1653.582    1653.332 
   1653.332    1647.896    1647.896    1644.961    1644.961    1651.092 
   1651.092    1657.540 
   1670.106    1663.246    1663.246    1657.436    1657.436    1658.400 
   1658.400    1655.505    1655.505    1653.278    1653.278    1657.449 
   1657.449    1661.547 
   1670.106    1663.246    1663.246    1657.436    1657.436    1658.400 
   1658.400    1655.505    1655.505    1653.278    1653.278    1657.449 
   1657.449    1661.547 
   1672.022    1667.020    1667.020    1663.288    1663.288    1664.287 
   1664.287    1662.418    1662.418    1661.284    1661.284    1662.981 
   1662.981    1664.422 
   1672.022    1667.020    1667.020    1663.288    1663.288    1664.287 
   1664.287    1662.418    1662.418    1661.284    1661.284    1662.981 
   1662.981    1664.422 
   1674.828    1669.862    1669.862    1667.048    1667.048    1667.966 
   1667.966    1667.078    1667.078    1667.828    1667.828    1668.277 
   1668.277    1668.271 
   1674.828    1669.862    1669.862    1667.048    1667.048    1667.966 
   1667.966    1667.078    1667.078    1667.828    1667.828    1668.277 
   1668.277    1668.271 
   1679.115    1673.325    1673.325    1670.264    1670.264    1670.444 
   1670.444    1670.080    1670.080    1671.802    1671.802    1672.287 
   1672.287    1671.313 
   1674.043    1661.542    1661.542    1653.200    1653.200    1650.598 
   1650.598    1643.506    1643.506    1641.813    1641.813    1647.836 
   1647.836    1653.900 
   1671.088    1662.058    1662.058    1655.331    1655.331    1655.130 
   1655.130    1649.858    1649.858    1646.737    1646.737    1652.786 
   1652.786    1659.320    1671.088    1662.058    1662.058    1655.331 
   1655.331    1655.130    1655.130    1649.858    1649.858    1646.737 
   1646.737    1652.786    1652.786    1659.320 
   1671.811    1665.018    1665.018    1659.181    1659.181    1660.181 
   1660.181    1657.380    1657.380    1655.079    1655.079    1659.178 
   1659.178    1663.337    1671.811    1665.018    1665.018    1659.181 
   1659.181    1660.181    1660.181    1657.380    1657.380    1655.079 
   1655.079    1659.178    1659.178    1663.337 
   1673.714    1668.739    1668.739    1665.000    1665.000    1666.039 
   1666.039    1664.223    1664.223    1663.079    1663.079    1664.752 
   1664.752    1666.231    1673.714    1668.739    1668.739    1665.000 
   1665.000    1666.039    1666.039    1664.223    1664.223    1663.079 
   1663.079    1664.752    1664.752    1666.231 
   1676.528    1671.557    1671.557    1668.733    1668.733    1669.671 
   1669.671    1668.812    1668.812    1669.578    1669.578    1670.063 
   1670.063    1670.099    1676.528    1671.557    1671.557    1668.733 
   1668.733    1669.671    1669.671    1668.812    1668.812    1669.578 
   1669.578    1670.063    1670.063    1670.099 
   1680.790    1675.001    1675.001    1671.946    1671.946    1672.149 
   1672.149    1671.783    1671.783    1673.514    1673.514    1674.038 
   1674.038    1673.110    1674.043    1661.542    1661.542    1653.200 
   1653.200    1650.598    1650.598    1643.506    1643.506    1641.813 
   1641.813    1647.836    1647.836    1653.900 
   1671.088    1662.058    1662.058    1655.331    1655.331    1655.130 
   1655.130    1649.858    1649.858    1646.737    1646.737    1652.786 
   1652.786    1659.320 
   1671.088    1662.058    1662.058    1655.331    1655.331    1655.130 
   1655.130    1649.858    1649.858    1646.737    1646.737    1652.786 
   1652.786    1659.320 
   1671.811    1665.018    1665.018    1659.181    1659.181    1660.181 
   1660.181    1657.380    1657.380    1655.079    1655.079    1659.178 
   1659.178    1663.337 
   1671.811    1665.018    1665.018    1659.181    1659.181    1660.181 
   1660.181    1657.380    1657.380    1655.079    1655.079    1659.178 
   1659.178    1663.337 
   1673.714    1668.739    1668.739    1665.000    1665.000    1666.039 
   1666.039    1664.223    1664.223    1663.079    1663.079    1664.752 
   1664.752    1666.231 
   1673.714    1668.739    1668.739    1665.000    1665.000    1666.039 
   1666.039    1664.223    1664.223    1663.079    1663.079    1664.752 
   1664.752    1666.231 
   1676.528    1671.557    1671.557    1668.733    1668.733    1669.671 
   1669.671    1668.812    1668.812    1669.578    1669.578    1670.063 
   1670.063    1670.099 
   1676.528    1671.557    1671.557    1668.733    1668.733    1669.671 
   1669.671    1668.812    1668.812    1669.578    1669.578    1670.063 
   1670.063    1670.099 
   1680.790    1675.001    1675.001    1671.946    1671.946    1672.149 
   1672.149    1671.783    1671.783    1673.514    1673.514    1674.038 
   1674.038    1673.110 
   1675.757    1663.343    1663.343    1654.992    1654.992    1652.467 
   1652.467    1645.465    1645.465    1643.551    1643.551    1649.490 
   1649.490    1655.625 
   1672.794    1663.840    1663.840    1657.080    1657.080    1656.929 
   1656.929    1651.820    1651.820    1648.514    1648.514    1654.481 
   1654.481    1661.099    1672.794    1663.840    1663.840    1657.080 
   1657.080    1656.929    1656.929    1651.820    1651.820    1648.514 
   1648.514    1654.481    1654.481    1661.099 
   1673.516    1666.789    1666.789    1660.925    1660.925    1661.961 
   1661.961    1659.254    1659.254    1656.879    1656.879    1660.907 
   1660.907    1665.126    1673.516    1666.789    1666.789    1660.925 
   1660.925    1661.961    1661.961    1659.254    1659.254    1656.879 
   1656.879    1660.907    1660.907    1665.126 
   1675.406    1670.457    1670.457    1666.713    1666.713    1667.792 
   1667.792    1666.027    1666.027    1664.875    1664.875    1666.522 
   1666.522    1668.040    1675.406    1670.457    1670.457    1666.713 
   1666.713    1667.792    1667.792    1666.027    1666.027    1664.875 
   1664.875    1666.522    1666.522    1668.040 
   1678.228    1673.251    1673.251    1670.419    1670.419    1671.375 
   1671.375    1670.546    1670.546    1671.329    1671.329    1671.848 
   1671.848    1671.928    1678.228    1673.251    1673.251    1670.419 
   1670.419    1671.375    1671.375    1670.546    1670.546    1671.329 
   1671.329    1671.848    1671.848    1671.928 
   1682.465    1676.677    1676.677    1673.627    1673.627    1673.854 
   1673.854    1673.486    1673.486    1675.226    1675.226    1675.790 
   1675.790    1674.907    1675.757    1663.343    1663.343    1654.992 
   1654.992    1652.467    1652.467    1645.465    1645.465    1643.551 
   1643.551    1649.490    1649.490    1655.625 
   1672.794    1663.840    1663.840    1657.080    1657.080    1656.929 
   1656.929    1651.820    1651.820    1648.514    1648.514    1654.481 
   1654.481    1661.099 
   1672.794    1663.840    1663.840    1657.080    1657.080    1656.929 
   1656.929    1651.820    1651.820    1648.514    1648.514    1654.481 
   1654.481    1661.099 
   1673.516    1666.789    1666.789    1660.925    1660.925    1661.961 
   1661.961    1659.254    1659.254    1656.879    1656.879    1660.907 
   1660.907    1665.126 
   1673.516    1666.789    1666.789    1660.925    1660.925    1661.961 
   1661.961    1659.254    1659.254    1656.879    1656.879    1660.907 
   1660.907    1665.126 
   1675.406    1670.457    1670.457    1666.713    1666.713    1667.792 
   1667.792    1666.027    1666.027    1664.875    1664.875    1666.522 
   1666.522    1668.040 
   1675.406    1670.457    1670.457    1666.713    1666.713    1667.792 
   1667.792    1666.027    1666.027    1664.875    1664.875    1666.522 
   1666.522    1668.040 
   1678.228    1673.251    1673.251    1670.419    1670.419    1671.375 
   1671.375    1670.546    1670.546    1671.329    1671.329    1671.848 
   1671.848    1671.928 
   1678.228    1673.251    1673.251    1670.419    1670.419    1671.375 
   1671.375    1670.546    1670.546    1671.329    1671.329    1671.848 
   1671.848    1671.928 
   1682.465    1676.677    1676.677    1673.627    1673.627    1673.854 
   1673.854    1673.486    1673.486    1675.226    1675.226    1675.790 
   1675.790    1674.907 
   1677.472    1665.145    1665.145    1656.785    1656.785    1654.337 
   1654.337    1647.423    1647.423    1645.290    1645.290    1651.144 
   1651.144    1657.350 
   1674.500    1665.622    1665.622    1658.829    1658.829    1658.727 
   1658.727    1653.782    1653.782    1650.291    1650.291    1656.175 
   1656.175    1662.879    1674.500    1665.622    1665.622    1658.829 
   1658.829    1658.727    1658.727    1653.782    1653.782    1650.291 
   1650.291    1656.175    1656.175    1662.879 
   1675.220    1668.561    1668.561    1662.670    1662.670    1663.741 
   1663.741    1661.129    1661.129    1658.679    1658.679    1662.637 
   1662.637    1666.916    1675.220    1668.561    1668.561    1662.670 
   1662.670    1663.741    1663.741    1661.129    1661.129    1658.679 
   1658.679    1662.637    1662.637    1666.916 
   1677.098    1672.176    1672.176    1668.426    1668.426    1669.544 
   1669.544    1667.832    1667.832    1666.671    1666.671    1668.293 
   1668.293    1669.849    1677.098    1672.176    1672.176    1668.426 
   1668.426    1669.544    1669.544    1667.832    1667.832    1666.671 
   1666.671    1668.293    1668.293    1669.849 
   1679.928    1674.945    1674.945    1672.104    1672.104    1673.080 
   1673.080    1672.281    1672.281    1673.079    1673.079    1673.634 
   1673.634    1673.757    1679.928    1674.945    1674.945    1672.104 
   1672.104    1673.080    1673.080    1672.281    1672.281    1673.079 
   1673.079    1673.634    1673.634    1673.757 
   1684.139    1678.352    1678.352    1675.308    1675.308    1675.559 
   1675.559    1675.189    1675.189    1676.937    1676.937    1677.541 
   1677.541    1676.704    1677.472    1665.145    1665.145    1656.785 
   1656.785    1654.337    1654.337    1647.423    1647.423    1645.290 
   1645.290    1651.144    1651.144    1657.350 
   1674.500    1665.622    1665.622    1658.829    1658.829    1658.727 
   1658.727    1653.782    1653.782    1650.291    1650.291    1656.175 
   1656.175    1662.879 
   1674.500    1665.622    1665.622    1658.829    1658.829    1658.727 
   1658.727    1653.782    1653.782    1650.291    1650.291    1656.175 
   1656.175    1662.879 
   1675.220    1668.561    1668.561    1662.670    1662.670    1663.741 
   1663.741    1661.129    1661.129    1658.679    1658.679    1662.637 
   1662.637    1666.916 
   1675.220    1668.561    1668.561    1662.670    1662.670    1663.741 
   1663.741    1661.129    1661.129    1658.679    1658.679    1662.637 
   1662.637    1666.916 
   1677.098    1672.176    1672.176    1668.426    1668.426    1669.544 
   1669.544    1667.832    1667.832    1666.671    1666.671    1668.293 
   1668.293    1669.849 
   1677.098    1672.176    1672.176    1668.426    1668.426    1669.544 
   1669.544    1667.832    1667.832    1666.671    1666.671    1668.293 
   1668.293    1669.849 
   1679.928    1674.945    1674.945    1672.104    1672.104    1673.080 
   1673.080    1672.281    1672.281    1673.079    1673.079    1673.634 
   1673.634    1673.757 
   1679.928    1674.945    1674.945    1672.104    1672.104    1673.080 
   1673.080    1672.281    1672.281    1673.079    1673.079    1673.634 
   1673.634    1673.757 
   1684.139    1678.352    1678.352    1675.308    1675.308    1675.559 
   1675.559    1675.189    1675.189    1676.937    1676.937    1677.541 
   1677.541    1676.704 