-- This reservoir simulation deck is made available under the Open Database
-- License: http://opendatacommons.org/licenses/odbl/1.0/. Any rights in
-- individual contents of the database are licensed under the Database Contents
-- License: http://opendatacommons.org/licenses/dbcl/1.0/

-- Copyright (C) 2020 Equinor

NOECHO


MAPUNITS
'METRES  ' /

MAPAXES
453114.000 7331119.500
453114.000 7315835.500
465658.625 7315835.500 /

GRIDUNIT
'METRES  ' '        ' /

SPECGRID
  8  15  3   1  F  /

GDORIENT
INC INC INC DOWN LEFT /

COORD
     6981.375      7109.500    2650.607      6955.562      7091.000    2798.884
     7026.844      7058.000    2647.532      7016.812      7022.500    2798.579
     7071.938      7005.500    2651.516      7078.312      6956.000    2795.323
     7116.719      6954.000    2652.956      7141.812      6891.000    2792.664
     7158.062      6907.500    2645.073      7205.156      6829.000    2787.120
     7196.969      6861.000    2640.535      7272.312      6766.500    2784.435
     7246.469      6805.000    2645.138      7328.406      6705.500    2788.546
     7295.625      6749.000    2648.546      7380.906      6647.500    2793.428
     7340.375      6697.500    2644.570      7516.438      6493.000    2942.794
     7052.312      7168.500    2643.240      7024.719      7155.000    2783.769
     7100.094      7118.500    2634.765      7084.250      7091.000    2772.572
     7148.812      7068.500    2625.868      7142.031      7026.500    2771.612
     7194.094      7019.500    2626.860      7203.594      6965.000    2766.069
     7235.500      6975.500    2623.860      7265.875      6899.000    2769.426
     7267.219      6930.000    2621.795      7337.344      6837.000    2762.564
     7307.031      6882.500    2619.634      7404.438      6770.000    2767.312
     7360.469      6823.000    2626.945      7452.250      6718.500    2765.261
     7411.625      6766.000    2625.459      7592.438      6562.000    2921.261
     7124.062      7231.000    2619.880      7089.719      7217.000    2770.587
     7173.281      7184.500    2602.920      7151.062      7154.500    2761.140
     7218.562      7135.500    2607.604      7212.188      7090.000    2760.938
     7259.531      7089.000    2612.636      7273.812      7032.500    2746.803
     7299.562      7044.000    2610.886      7335.156      6972.000    2743.978
     7337.281      6999.500    2607.562      7398.062      6912.500    2739.282
     7375.125      6955.000    2604.676      7462.906      6848.000    2739.714
     7413.344      6909.000    2605.157      7519.125      6795.000    2728.750
     7478.938      6839.000    2609.025      7667.500      6634.500    2895.902
     7195.031      7300.000    2590.321      7157.531      7279.000    2769.376
     7238.875      7254.000    2594.068      7222.000      7220.500    2738.822
     7283.031      7206.500    2597.447      7281.938      7159.500    2736.493
     7325.562      7161.000    2596.205      7341.781      7101.500    2728.727
     7366.000      7116.000    2595.100      7400.906      7044.500    2721.447
     7404.750      7071.500    2592.310      7461.656      6987.500    2720.553
     7441.625      7029.000    2594.740      7524.406      6927.000    2720.367
     7482.781      6982.000    2602.521      7587.375      6865.000    2714.727
     7544.906      6912.500    2597.968      7752.031      6700.000    2892.720
     7262.969      7378.000    2582.816      7232.125      7346.000    2727.576
     7305.875      7329.000    2579.019      7288.938      7285.000    2727.492
     7351.406      7280.000    2578.548      7349.469      7227.500    2720.324
     7395.781      7232.000    2579.625      7408.500      7172.000    2710.891
     7436.344      7189.000    2579.357      7467.438      7111.000    2717.124
     7473.500      7143.000    2579.438      7525.719      7063.000    2704.086
     7512.781      7096.500    2579.279      7587.281      7005.000    2712.040
     7558.719      7044.500    2586.073      7645.844      6950.000    2711.144
     7609.438      6987.500    2585.714      7819.438      6783.500    2874.880
     7324.250      7436.000    2577.341      7298.969      7428.000    2718.603
     7364.656      7394.500    2576.862      7361.250      7361.500    2714.549
     7406.500      7352.500    2573.470      7423.406      7299.500    2706.139
     7450.156      7307.000    2572.472      7479.719      7245.500    2697.429
     7492.875      7262.000    2570.921      7535.688      7191.500    2692.791
     7535.750      7214.500    2572.130      7591.719      7139.500    2690.885
     7578.562      7167.000    2570.217      7650.031      7085.000    2695.526
     7626.469      7114.000    2577.113      7708.750      7030.000    2701.519
     7668.406      7067.500    2570.444      7886.219      6866.500    2869.924
     7379.375      7500.000    2569.167      7361.375      7506.000    2712.138
     7418.219      7466.000    2567.829      7428.812      7435.500    2698.415
     7454.344      7433.000    2566.159      7498.906      7364.000    2697.340
     7503.250      7384.500    2564.173      7549.156      7316.500    2689.798
     7549.594      7337.000    2562.375      7603.906      7264.500    2684.119
     7595.031      7289.500    2562.731      7658.562      7214.000    2682.955
     7640.031      7241.500    2562.505      7714.938      7162.000    2686.634
     7685.562      7192.500    2563.938      7771.344      7110.500    2690.299
     7729.688      7144.500    2563.224      7956.438      6947.000    2865.687
     7436.125      7577.000    2560.739      7423.500      7578.500    2694.875
     7476.938      7539.500    2560.261      7490.906      7508.500    2692.094
     7515.625      7504.000    2554.576      7561.312      7436.500    2687.577
     7561.688      7459.000    2555.549      7616.188      7387.000    2679.592
     7607.781      7412.500    2553.626      7670.094      7337.500    2675.438
     7654.219      7365.000    2552.861      7724.250      7288.000    2674.719
     7700.938      7316.500    2553.574      7780.562      7237.000    2678.906
     7748.594      7267.000    2557.271      7838.344      7185.000    2684.531
     7792.375      7220.500    2555.874      8030.625      7022.500    2862.331
     7496.125      7652.500    2553.656      7479.000      7655.500    2686.509
     7536.031      7615.000    2553.518      7548.250      7586.500    2683.225
     7574.438      7580.000    2549.755      7621.188      7513.000    2681.077
     7617.219      7538.000    2549.631      7686.562      7452.000    2674.825
     7666.406      7488.500    2548.937      7734.719      7410.500    2667.649
     7714.844      7440.000    2547.598      7787.031      7364.000    2663.940
     7763.031      7391.000    2547.371      7845.656      7311.500    2671.637
     7812.188      7341.000    2550.513      7905.188      7259.500    2678.486
     7859.094      7293.000    2550.786      8105.094      7096.000    2859.290
     7557.344      7725.000    2547.906      7530.938      7737.500    2678.041
     7595.969      7689.500    2547.249      7601.531      7669.000    2672.606
     7634.906      7653.000    2548.100      7672.438      7600.000    2671.700
     7673.500      7617.000    2549.140      7745.625      7529.500    2671.297
     7726.062      7564.500    2545.552      7794.406      7488.000    2660.203
     7776.406      7514.500    2543.836      7849.594      7439.000    2660.234
     7826.312      7464.500    2542.717      7908.906      7387.000    2665.326
     7877.438      7414.000    2545.237      7971.844      7331.500    2674.284
     7929.250      7363.000    2547.530      8179.250      7161.000    2860.080
     7614.812      7802.500    2543.723      7583.844      7817.500    2673.398
     7655.938      7763.500    2543.337      7654.250      7751.500    2663.785
     7698.000      7724.000    2543.019      7722.469      7686.500    2661.428
     7741.719      7682.000    2542.212      7788.906      7624.500    2659.820
     7789.594      7635.500    2541.728      7848.531      7571.000    2655.057
     7839.094      7587.500    2540.541      7907.812      7518.500    2654.650
     7889.688      7538.000    2539.183      7969.500      7464.000    2659.411
     7942.906      7486.500    2541.739      8034.781      7407.000    2669.250
     7999.469      7432.000    2545.725      8245.875      7232.500    2862.626
     7671.438      7881.500    2541.112      7633.219      7900.000    2674.300
     7713.188      7841.000    2541.128      7707.031      7833.000    2659.002
     7756.969      7799.000    2541.865      7775.531      7769.000    2656.325
     7802.750      7755.500    2541.878      7842.312      7707.000    2657.454
     7850.312      7709.500    2540.499      7905.219      7650.500    2654.220
     7901.281      7661.000    2542.474      7966.812      7595.500    2654.061
     7950.906      7613.500    2536.034      8030.219      7540.000    2659.081
     8004.344      7562.500    2537.327      8096.312      7483.500    2666.447
     8065.781      7505.500    2544.928      8332.625      7291.000    2885.128
     7720.625      7965.500    2540.348      7684.688      7983.000    2666.200
     7765.375      7922.500    2540.773      7760.062      7913.500    2660.948
     7811.438      7878.500    2542.310      7831.062      7848.000    2654.780
     7858.844      7833.500    2542.387      7899.312      7785.000    2654.596
     7907.625      7787.000    2541.103      7963.875      7726.500    2653.438
     7958.781      7738.500    2541.135      8025.906      7671.000    2653.967
     8010.938      7689.000    2538.558      8089.094      7616.000    2659.711
     8068.406      7635.500    2543.533      8156.781      7559.500    2668.878
     8132.219      7578.500    2549.000      8396.062      7371.000    2886.169
     7769.344      8050.000    2540.017      7736.438      8065.000    2667.489
     7815.375      8005.500    2540.609      7814.969      7993.000    2660.510
     7863.188      7960.000    2543.979      7889.406      7924.000    2655.440
     7911.875      7914.500    2544.974      7960.812      7858.000    2655.068
     7961.250      7867.500    2543.394      8026.250      7797.500    2653.509
     8013.719      7817.500    2541.630      8085.812      7744.000    2654.694
     8065.875      7768.000    2540.461      8145.562      7692.000    2663.428
     8122.500      7716.000    2547.620      8208.219      7640.500    2672.746
     8181.969      7664.000    2551.521      8426.781      7476.000    2879.877
     7814.469      8136.000    2539.743      7784.219      8152.500    2665.807
     7863.469      8089.000    2540.667      7870.500      8072.000    2654.508
     7911.688      8045.000    2543.984      7949.125      7999.500    2658.060
     7960.281      8000.500    2545.393      8032.500      7919.500    2663.426
     8017.281      7946.000    2555.940      8109.594      7846.500    2667.904
     8069.531      7895.000    2543.134      8151.938      7808.000    2660.727
     8118.406      7847.500    2543.396      8199.531      7765.500    2670.286
     8169.188      7798.500    2553.280      8244.875      7724.000    2671.807
     8216.688      7758.500    2548.466      8416.312      7554.000    2865.051
     7899.844      8204.000    2539.733      7864.625      8216.500    2665.979
     7941.688      8163.500    2540.515      7945.219      8145.000    2654.724
     7985.938      8121.000    2545.798      8020.500      8075.000    2658.113
     8026.500      8084.000    2539.877      8095.625      8004.000    2661.621
     8079.781      8033.000    2548.365      8149.656      7956.500    2659.312
     8127.375      7988.000    2546.093      8198.281      7914.500    2656.908
     8173.688      7943.500    2545.178      8248.281      7871.500    2668.437
     8219.781      7900.000    2548.114      8294.125      7834.000    2669.419
     8263.812      7858.500    2547.971      8464.625      7700.500    2867.977
  /

ZCORN
   2650.607    2647.532    2647.532    2651.516    2651.516    2652.956 
   2652.956    2645.073    2645.073    2640.535    2644.885    2645.138 
   2645.138    2648.546    2648.546    2644.570 
   2643.240    2634.765    2634.765    2630.132    2630.132    2628.237 
   2628.237    2623.860    2623.860    2621.795    2626.185    2623.990 
   2623.990    2626.945    2626.945    2625.459 
   2643.240    2634.765    2634.765    2630.132    2625.868    2626.860 
   2626.860    2623.860    2623.860    2621.795    2621.795    2619.634 
   2623.990    2626.945    2626.945    2625.459 
   2625.399    2614.149    2614.149    2620.647    2607.604    2612.636 
   2612.636    2610.886    2610.886    2607.562    2607.562    2604.676 
   2609.458    2609.757    2609.757    2609.025 
   2619.880    2602.920    2602.920    2607.604    2607.604    2612.636 
   2612.636    2610.886    2610.886    2607.562    2607.562    2604.676 
   2604.676    2605.157    2609.757    2609.025 
   2590.321    2594.068    2594.068    2597.447    2597.447    2596.205 
   2596.205    2595.100    2595.100    2592.310    2592.310    2594.740 
   2594.740    2602.521    2602.521    2597.968 
   2590.321    2594.068    2594.068    2597.447    2597.447    2596.205 
   2596.205    2595.100    2595.100    2592.310    2592.310    2594.740 
   2594.740    2602.521    2602.521    2597.968 
   2582.816    2588.742    2588.742    2588.067    2588.067    2582.473 
   2582.473    2579.357    2579.357    2579.438    2579.438    2579.279 
   2579.279    2586.073    2586.073    2585.714 
   2582.816    2579.019    2579.019    2578.548    2578.548    2579.625 
   2579.625    2579.357    2579.357    2579.438    2579.438    2579.279 
   2579.279    2586.073    2586.073    2585.714 
   2577.341    2576.862    2576.862    2573.470    2573.470    2572.472 
   2572.472    2570.921    2570.921    2572.130    2572.130    2570.217 
   2570.217    2577.113    2577.113    2570.444 
   2577.341    2576.862    2576.862    2573.470    2573.470    2572.472 
   2572.472    2570.921    2570.921    2572.130    2572.130    2570.217 
   2570.217    2577.113    2577.113    2570.444 
   2569.167    2567.829    2567.829    2566.159    2566.159    2564.173 
   2564.173    2562.375    2562.375    2562.731    2562.731    2562.505 
   2562.505    2563.938    2563.938    2563.224 
   2569.167    2567.829    2567.829    2566.159    2566.159    2564.173 
   2564.173    2562.375    2562.375    2562.731    2562.731    2562.505 
   2562.505    2563.938    2563.938    2563.224 
   2560.739    2560.261    2560.261    2558.655    2554.576    2555.549 
   2555.549    2553.626    2553.626    2552.861    2552.861    2553.574 
   2553.574    2557.271    2557.271    2555.874 
   2560.739    2560.261    2560.261    2558.655    2554.576    2555.549 
   2555.549    2553.626    2553.626    2552.861    2552.861    2553.574 
   2553.574    2557.271    2557.271    2555.874 
   2553.656    2553.518    2553.518    2552.863    2549.755    2549.631 
   2549.631    2548.937    2548.937    2547.598    2547.598    2547.371 
   2547.371    2550.513    2550.513    2550.786 
   2553.656    2553.518    2553.518    2552.863    2552.863    2552.832 
   2549.631    2548.937    2548.937    2547.598    2547.598    2547.371 
   2547.371    2550.513    2550.513    2550.786 
   2547.906    2547.249    2547.249    2548.100    2548.100    2549.140 
   2549.140    2545.552    2545.552    2543.836    2543.836    2542.717 
   2542.717    2545.237    2545.237    2547.530 
   2547.906    2547.249    2547.249    2548.100    2548.100    2549.140 
   2549.140    2545.552    2545.552    2543.836    2543.836    2542.717 
   2542.717    2545.237    2545.237    2547.530 
   2543.723    2543.337    2543.337    2543.019    2543.019    2542.212 
   2542.212    2541.728    2541.728    2540.541    2540.541    2539.183 
   2539.183    2541.739    2541.739    2545.725 
   2543.723    2543.337    2543.337    2543.019    2543.019    2542.212 
   2542.212    2541.728    2541.728    2540.541    2540.541    2539.183 
   2539.183    2541.739    2541.739    2545.725 
   2541.112    2541.128    2541.128    2541.865    2541.865    2541.878 
   2541.878    2540.499    2540.499    2542.474    2542.474    2536.034 
   2536.034    2537.327    2537.327    2544.928 
   2541.112    2541.128    2541.128    2541.865    2541.865    2541.878 
   2541.878    2540.499    2540.499    2542.474    2542.474    2536.034 
   2536.034    2537.327    2537.327    2544.928 
   2540.348    2540.773    2540.773    2542.310    2542.310    2542.387 
   2542.387    2541.103    2541.103    2541.135    2541.135    2538.558 
   2538.558    2543.533    2543.533    2549.000 
   2540.348    2540.773    2540.773    2542.310    2542.310    2542.387 
   2542.387    2541.103    2541.103    2541.135    2541.135    2538.558 
   2538.558    2543.533    2543.533    2549.000 
   2540.017    2540.609    2540.609    2543.979    2543.979    2544.974 
   2544.974    2543.394    2543.394    2541.630    2541.630    2540.461 
   2540.461    2547.620    2547.620    2551.521 
   2540.017    2540.609    2540.609    2543.979    2543.979    2544.974 
   2544.974    2543.394    2543.394    2541.630    2541.630    2540.461 
   2540.461    2547.620    2547.620    2551.521 
   2539.743    2540.667    2540.667    2543.984    2543.984    2545.603 
   2545.603    2555.940    2555.940    2543.134    2543.134    2543.396 
   2543.396    2553.280    2553.280    2548.466 
   2539.743    2540.667    2540.667    2543.984    2543.984    2545.603 
   2545.393    2555.940    2555.940    2543.134    2543.134    2543.396 
   2543.396    2553.280    2553.280    2548.466 
   2539.733    2540.515    2540.515    2545.798    2545.798    2546.635 
   2539.877    2548.365    2548.365    2546.093    2546.093    2545.178 
   2545.178    2548.114    2548.114    2547.971 
   2661.859    2660.028    2660.028    2664.449    2664.449    2665.107 
   2665.107    2657.427    2657.427    2652.682    2655.764    2656.268 
   2656.268    2659.815    2659.815    2656.459 
   2654.396    2647.381    2647.381    2642.774    2642.774    2640.326 
   2640.326    2636.458    2636.458    2632.867    2636.769    2635.116 
   2635.116    2637.680    2637.680    2636.982    2654.396    2647.381 
   2647.381    2642.774    2639.386    2640.312    2640.312    2636.458 
   2636.458    2632.867    2632.867    2630.616    2635.116    2637.680 
   2637.680    2636.982 
   2636.925    2627.159    2627.159    2633.490    2619.678    2626.192 
   2626.192    2621.987    2621.987    2617.655    2617.655    2614.202 
   2619.567    2618.992    2618.992    2619.597    2629.900    2613.894 
   2613.894    2619.678    2619.678    2626.192    2626.192    2621.987 
   2621.987    2617.655    2617.655    2614.202    2614.202    2613.564 
   2618.992    2619.597 
   2601.697    2605.097    2605.097    2608.503    2608.503    2606.916 
   2606.916    2605.210    2605.210    2601.234    2601.234    2603.540 
   2603.540    2610.032    2610.032    2607.516    2601.697    2605.097 
   2605.097    2608.503    2608.503    2606.916    2606.916    2605.210 
   2605.210    2601.234    2601.234    2603.540    2603.540    2610.032 
   2610.032    2607.516 
   2592.713    2599.428    2599.428    2598.516    2598.516    2592.784 
   2592.784    2589.419    2589.419    2587.844    2587.844    2588.335 
   2588.335    2593.993    2593.993    2593.962    2592.713    2588.427 
   2588.427    2588.000    2588.000    2588.866    2588.866    2589.419 
   2589.419    2587.844    2587.844    2588.335    2588.335    2593.993 
   2593.993    2593.962 
   2586.635    2586.051    2586.051    2582.549    2582.549    2581.366 
   2581.366    2579.549    2579.549    2580.078    2580.078    2578.281 
   2578.281    2584.478    2584.478    2578.695    2586.635    2586.051 
   2586.051    2582.549    2582.549    2581.366    2581.366    2579.549 
   2579.549    2580.078    2580.078    2578.281    2578.281    2584.478 
   2584.478    2578.695 
   2578.167    2576.230    2576.230    2574.848    2574.848    2572.724 
   2572.724    2570.430    2570.430    2570.438    2570.438    2570.041 
   2570.041    2571.502    2571.502    2571.031    2578.167    2576.230 
   2576.230    2574.848    2574.848    2572.724    2572.724    2570.430 
   2570.430    2570.438    2570.438    2570.041    2570.041    2571.502 
   2571.502    2571.031 
   2569.118    2568.609    2568.609    2566.708    2562.628    2563.328 
   2563.328    2561.056    2561.056    2560.349    2560.349    2561.078 
   2561.078    2564.711    2564.711    2563.640    2569.118    2568.609 
   2568.609    2566.708    2562.628    2563.328    2563.328    2561.056 
   2561.056    2560.349    2560.349    2561.078    2561.078    2564.711 
   2564.711    2563.640 
   2561.604    2561.155    2561.155    2560.402    2557.594    2556.871 
   2556.871    2555.978    2555.978    2554.431    2554.431    2554.273 
   2554.273    2557.576    2557.576    2558.755    2561.604    2561.155 
   2561.155    2560.402    2560.402    2559.810    2556.871    2555.978 
   2555.978    2554.431    2554.431    2554.273    2554.273    2557.576 
   2557.576    2558.755 
   2555.440    2554.549    2554.549    2555.170    2555.170    2556.061 
   2556.061    2551.928    2551.928    2550.237    2550.237    2549.211 
   2549.211    2553.520    2553.520    2555.666    2555.440    2554.549 
   2554.549    2555.170    2555.170    2556.061    2556.061    2551.928 
   2551.928    2550.237    2550.237    2549.211    2549.211    2553.520 
   2553.520    2555.666 
   2551.014    2550.108    2550.108    2549.581    2549.581    2548.739 
   2548.739    2548.151    2548.151    2546.681    2546.681    2545.276 
   2545.276    2548.052    2548.052    2553.102    2551.014    2550.108 
   2550.108    2549.581    2549.581    2548.739    2548.739    2548.151 
   2548.151    2546.681    2546.681    2545.276    2545.276    2548.052 
   2548.052    2553.102 
   2548.077    2547.521    2547.521    2548.021    2548.021    2547.785 
   2547.785    2546.808    2546.808    2547.709    2547.709    2541.846 
   2541.846    2543.853    2543.853    2552.451    2548.077    2547.521 
   2547.521    2548.021    2548.021    2547.785    2547.785    2546.808 
   2546.808    2547.709    2547.709    2541.846    2541.846    2543.853 
   2543.853    2552.451 
   2546.912    2547.051    2547.051    2548.164    2548.164    2547.953 
   2547.953    2546.705    2546.705    2546.460    2546.460    2543.981 
   2543.981    2549.273    2549.273    2555.769    2546.912    2547.051 
   2547.051    2548.164    2548.164    2547.953    2547.953    2546.705 
   2546.705    2546.460    2546.460    2543.981    2543.981    2549.273 
   2549.273    2555.769 
   2545.942    2546.594    2546.594    2549.583    2549.583    2550.201 
   2550.201    2548.459    2548.459    2546.543    2546.543    2545.429 
   2545.429    2553.120    2553.120    2557.950    2545.942    2546.594 
   2546.594    2549.583    2549.583    2550.201    2550.201    2548.459 
   2548.459    2546.543    2546.543    2545.429    2545.429    2553.120 
   2553.120    2557.950 
   2544.979    2545.205    2545.205    2549.177    2549.177    2551.079 
   2551.079    2560.501    2560.501    2547.552    2547.552    2548.437 
   2548.437    2558.966    2558.966    2554.244    2544.979    2545.205 
   2545.205    2549.177    2549.177    2551.079    2549.753    2560.501 
   2560.501    2547.552    2547.552    2548.437    2548.437    2558.966 
   2558.966    2554.244 
   2544.696    2545.579    2545.579    2550.781    2550.781    2551.714 
   2544.053    2552.463    2552.463    2550.111    2550.111    2549.545 
   2549.545    2553.144    2553.144    2552.954    2661.859    2660.028 
   2660.028    2664.449    2664.449    2665.107    2665.107    2657.427 
   2657.427    2652.682    2655.764    2656.268    2656.268    2659.815 
   2659.815    2656.459 
   2654.396    2647.381    2647.381    2642.774    2642.774    2640.326 
   2640.326    2636.458    2636.458    2632.867    2636.769    2635.116 
   2635.116    2637.680    2637.680    2636.982 
   2654.396    2647.381    2647.381    2642.774    2639.386    2640.312 
   2640.312    2636.458    2636.458    2632.867    2632.867    2630.616 
   2635.116    2637.680    2637.680    2636.982 
   2636.925    2627.159    2627.159    2633.490    2619.678    2626.192 
   2626.192    2621.987    2621.987    2617.655    2617.655    2614.202 
   2619.567    2618.992    2618.992    2619.597 
   2629.900    2613.894    2613.894    2619.678    2619.678    2626.192 
   2626.192    2621.987    2621.987    2617.655    2617.655    2614.202 
   2614.202    2613.564    2618.992    2619.597 
   2601.697    2605.097    2605.097    2608.503    2608.503    2606.916 
   2606.916    2605.210    2605.210    2601.234    2601.234    2603.540 
   2603.540    2610.032    2610.032    2607.516 
   2601.697    2605.097    2605.097    2608.503    2608.503    2606.916 
   2606.916    2605.210    2605.210    2601.234    2601.234    2603.540 
   2603.540    2610.032    2610.032    2607.516 
   2592.713    2599.428    2599.428    2598.516    2598.516    2592.784 
   2592.784    2589.419    2589.419    2587.844    2587.844    2588.335 
   2588.335    2593.993    2593.993    2593.962 
   2592.713    2588.427    2588.427    2588.000    2588.000    2588.866 
   2588.866    2589.419    2589.419    2587.844    2587.844    2588.335 
   2588.335    2593.993    2593.993    2593.962 
   2586.635    2586.051    2586.051    2582.549    2582.549    2581.366 
   2581.366    2579.549    2579.549    2580.078    2580.078    2578.281 
   2578.281    2584.478    2584.478    2578.695 
   2586.635    2586.051    2586.051    2582.549    2582.549    2581.366 
   2581.366    2579.549    2579.549    2580.078    2580.078    2578.281 
   2578.281    2584.478    2584.478    2578.695 
   2578.167    2576.230    2576.230    2574.848    2574.848    2572.724 
   2572.724    2570.430    2570.430    2570.438    2570.438    2570.041 
   2570.041    2571.502    2571.502    2571.031 
   2578.167    2576.230    2576.230    2574.848    2574.848    2572.724 
   2572.724    2570.430    2570.430    2570.438    2570.438    2570.041 
   2570.041    2571.502    2571.502    2571.031 
   2569.118    2568.609    2568.609    2566.708    2562.628    2563.328 
   2563.328    2561.056    2561.056    2560.349    2560.349    2561.078 
   2561.078    2564.711    2564.711    2563.640 
   2569.118    2568.609    2568.609    2566.708    2562.628    2563.328 
   2563.328    2561.056    2561.056    2560.349    2560.349    2561.078 
   2561.078    2564.711    2564.711    2563.640 
   2561.604    2561.155    2561.155    2560.402    2557.594    2556.871 
   2556.871    2555.978    2555.978    2554.431    2554.431    2554.273 
   2554.273    2557.576    2557.576    2558.755 
   2561.604    2561.155    2561.155    2560.402    2560.402    2559.810 
   2556.871    2555.978    2555.978    2554.431    2554.431    2554.273 
   2554.273    2557.576    2557.576    2558.755 
   2555.440    2554.549    2554.549    2555.170    2555.170    2556.061 
   2556.061    2551.928    2551.928    2550.237    2550.237    2549.211 
   2549.211    2553.520    2553.520    2555.666 
   2555.440    2554.549    2554.549    2555.170    2555.170    2556.061 
   2556.061    2551.928    2551.928    2550.237    2550.237    2549.211 
   2549.211    2553.520    2553.520    2555.666 
   2551.014    2550.108    2550.108    2549.581    2549.581    2548.739 
   2548.739    2548.151    2548.151    2546.681    2546.681    2545.276 
   2545.276    2548.052    2548.052    2553.102 
   2551.014    2550.108    2550.108    2549.581    2549.581    2548.739 
   2548.739    2548.151    2548.151    2546.681    2546.681    2545.276 
   2545.276    2548.052    2548.052    2553.102 
   2548.077    2547.521    2547.521    2548.021    2548.021    2547.785 
   2547.785    2546.808    2546.808    2547.709    2547.709    2541.846 
   2541.846    2543.853    2543.853    2552.451 
   2548.077    2547.521    2547.521    2548.021    2548.021    2547.785 
   2547.785    2546.808    2546.808    2547.709    2547.709    2541.846 
   2541.846    2543.853    2543.853    2552.451 
   2546.912    2547.051    2547.051    2548.164    2548.164    2547.953 
   2547.953    2546.705    2546.705    2546.460    2546.460    2543.981 
   2543.981    2549.273    2549.273    2555.769 
   2546.912    2547.051    2547.051    2548.164    2548.164    2547.953 
   2547.953    2546.705    2546.705    2546.460    2546.460    2543.981 
   2543.981    2549.273    2549.273    2555.769 
   2545.942    2546.594    2546.594    2549.583    2549.583    2550.201 
   2550.201    2548.459    2548.459    2546.543    2546.543    2545.429 
   2545.429    2553.120    2553.120    2557.950 
   2545.942    2546.594    2546.594    2549.583    2549.583    2550.201 
   2550.201    2548.459    2548.459    2546.543    2546.543    2545.429 
   2545.429    2553.120    2553.120    2557.950 
   2544.979    2545.205    2545.205    2549.177    2549.177    2551.079 
   2551.079    2560.501    2560.501    2547.552    2547.552    2548.437 
   2548.437    2558.966    2558.966    2554.244 
   2544.979    2545.205    2545.205    2549.177    2549.177    2551.079 
   2549.753    2560.501    2560.501    2547.552    2547.552    2548.437 
   2548.437    2558.966    2558.966    2554.244 
   2544.696    2545.579    2545.579    2550.781    2550.781    2551.714 
   2544.053    2552.463    2552.463    2550.111    2550.111    2549.545 
   2549.545    2553.144    2553.144    2552.954 
   2675.244    2675.573    2675.573    2680.928    2680.928    2680.592 
   2680.592    2673.172    2673.172    2668.162    2667.835    2668.732 
   2668.732    2672.377    2672.377    2669.616 
   2668.544    2664.505    2664.505    2659.323    2659.323    2655.733 
   2655.733    2652.980    2652.980    2647.512    2648.622    2647.569 