-- This reservoir simulation deck is made available under the Open Database
-- License: http://opendatacommons.org/licenses/odbl/1.0/. Any rights in
-- individual contents of the database are licensed under the Database Contents
-- License: http://opendatacommons.org/licenses/dbcl/1.0/

-- Copyright (C) 2020 Equinor

NOECHO


MAPUNITS
'METRES  ' /

MAPAXES
463881.063 6537327.379
463881.063 6501615.000
494225.157 6501615.000 /

GRIDUNIT
'METRES  ' '        ' /

SPECGRID
  1  1  19   1  F  /

GDORIENT
INC INC INC DOWN RIGHT /

COORD
     7052.419     20593.945    1773.169      7378.746     20508.297    2117.862
     7273.535     20748.816    1778.248      7532.308     20597.418    2192.269
     7186.955     20466.473    1771.968      7483.743     20335.980    2112.206
     7425.386     20635.445    1771.390      7604.312     20427.105    2148.525
  /

ZCORN
   1880.409    1889.814 
   1883.013    1882.666 
   1881.643    1891.295 
   1884.188    1883.861    1881.643    1891.295 
   1884.188    1883.861 
   1882.877    1892.777 
   1885.362    1885.055    1882.877    1892.777 
   1885.362    1885.055 
   1882.877    1892.777 
   1885.362    1885.055    1882.877    1892.777 
   1885.362    1885.055 
   1882.877    1892.777 
   1885.362    1885.055    1882.877    1892.777 
   1885.362    1885.055 
   1882.877    1892.777 
   1885.362    1885.055    1882.877    1892.777 
   1885.362    1885.055 
   1882.877    1892.777 
   1885.362    1885.055    1882.877    1892.777 
   1885.362    1885.055 
   1882.877    1892.777 
   1885.362    1885.055    1882.877    1892.777 
   1885.362    1885.055 
   1882.877    1892.777 
   1885.362    1885.055    1882.877    1892.777 
   1885.362    1885.055 
   1882.877    1892.777 
   1885.362    1885.055    1882.877    1892.777 
   1885.362    1885.055 
   1882.877    1892.777 
   1885.362    1885.055    1882.877    1892.777 
   1885.362    1885.055 
   1882.877    1892.777 
   1885.362    1885.055    1882.877    1892.777 
   1885.362    1885.055 
   1882.877    1892.777 
   1885.362    1885.055    1882.877    1892.777 
   1885.362    1885.055 
   1882.877    1892.777 
   1885.362    1885.055    1882.877    1892.777 
   1885.362    1885.055 
   1882.877    1892.777 
   1885.362    1885.055    1882.877    1892.777 
   1885.362    1885.055 
   1882.877    1892.777 
   1885.362    1885.055    1882.877    1892.777 
   1885.362    1885.055 
   1882.877    1892.777 
   1885.362    1885.055    1882.877    1892.777 
   1885.362    1885.055 
   1882.877    1893.206 
   1885.362    1885.055    1882.877    1893.206 
   1885.362    1885.055 
   1882.877    1894.206 
   1885.362    1885.055    1882.877    1894.206 
   1885.362    1885.055 
   1882.877    1895.206 
   1885.362    1885.055   /

ACTNUM
 1
 1
 0
 0
 0
 0
 0
 0
 0
 0
 0
 0
 0
 0
 0
 0
 1
 1
 1
  /


ECHO
