-- This reservoir simulation deck is made available under the Open Database
-- License: http://opendatacommons.org/licenses/odbl/1.0/. Any rights in
-- individual contents of the database are licensed under the Database Contents
-- License: http://opendatacommons.org/licenses/dbcl/1.0/
--
-- Copyright (C) 2018 Equinor
--
MAPUNITS
'METRES  ' /

MAPAXES
527495.491 6772592.000
527495.491 6771119.136
528316.892 6771119.136 /

GRIDUNIT
'METRES  ' '        ' /

SPECGRID
  7  18  20   1  F  /

COORD
      492.509      1472.864    2600.000       492.509      1472.864    2663.000
      539.494      1455.763    2600.000       539.494      1455.763    2663.000
      586.478      1438.662    2600.000       586.478      1438.662    2663.000
      633.463      1421.561    2600.000       633.463      1421.561    2663.000
      680.447      1404.460    2600.000       680.447      1404.460    2663.000
      727.432      1387.359    2600.000       727.432      1387.359    2663.000
      774.417      1370.258    2600.000       774.417      1370.258    2663.000
      821.401      1353.157    2600.000       821.401      1353.157    2663.000
      465.147      1397.689    2600.000       465.147      1397.689    2663.000
      512.132      1380.588    2600.000       512.132      1380.588    2663.000
      559.117      1363.487    2600.000       559.117      1363.487    2663.000
      606.101      1346.386    2600.000       606.101      1346.386    2663.000
      653.086      1329.285    2600.000       653.086      1329.285    2663.000
      700.071      1312.184    2600.000       700.071      1312.184    2663.000
      747.055      1295.083    2600.000       747.055      1295.083    2663.000
      794.040      1277.982    2600.000       794.040      1277.982    2663.000
      437.786      1322.514    2600.000       437.786      1322.514    2663.000
      484.770      1305.413    2600.000       484.770      1305.413    2663.000
      531.755      1288.312    2600.000       531.755      1288.312    2663.000
      578.740      1271.211    2600.000       578.740      1271.211    2663.000
      625.724      1254.110    2600.000       625.724      1254.110    2663.000
      672.709      1237.009    2600.000       672.709      1237.009    2663.000
      719.694      1219.908    2600.000       719.694      1219.908    2663.000
      766.678      1202.807    2600.000       766.678      1202.807    2663.000
      410.424      1247.338    2600.000       410.424      1247.338    2663.000
      457.409      1230.237    2600.000       457.409      1230.237    2663.000
      504.393      1213.136    2600.000       504.393      1213.136    2663.000
      551.378      1196.035    2600.000       551.378      1196.035    2663.000
      598.363      1178.934    2600.000       598.363      1178.934    2663.000
      645.347      1161.833    2600.000       645.347      1161.833    2663.000
      692.332      1144.732    2600.000       692.332      1144.732    2663.000
      739.317      1127.631    2600.000       739.317      1127.631    2663.000
      383.063      1172.163    2600.000       383.063      1172.163    2663.000
      430.047      1155.062    2600.000       430.047      1155.062    2663.000
      477.032      1137.961    2600.000       477.032      1137.961    2663.000
      524.016      1120.860    2600.000       524.016      1120.860    2663.000
      571.001      1103.759    2600.000       571.001      1103.759    2663.000
      617.986      1086.658    2600.000       617.986      1086.658    2663.000
      664.970      1069.557    2600.000       664.970      1069.557    2663.000
      711.955      1052.456    2600.000       711.955      1052.456    2663.000
      355.701      1096.987    2600.000       355.701      1096.987    2663.000
      402.686      1079.886    2600.000       402.686      1079.886    2663.000
      449.670      1062.785    2600.000       449.670      1062.785    2663.000
      496.655      1045.684    2600.000       496.655      1045.684    2663.000
      543.639      1028.583    2600.000       543.639      1028.583    2663.000
      590.624      1011.482    2600.000       590.624      1011.482    2663.000
      637.609       994.381    2600.000       637.609       994.381    2663.000
      684.593       977.280    2600.000       684.593       977.280    2663.000
      328.339      1021.812    2600.000       328.339      1021.812    2663.000
      375.324      1004.711    2600.000       375.324      1004.711    2663.000
      422.309       987.610    2600.000       422.309       987.610    2663.000
      469.293       970.509    2600.000       469.293       970.509    2663.000
      516.278       953.408    2600.000       516.278       953.408    2663.000
      563.262       936.307    2600.000       563.262       936.307    2663.000
      610.247       919.206    2600.000       610.247       919.206    2663.000
      657.232       902.105    2600.000       657.232       902.105    2663.000
      300.978       946.637    2600.000       300.978       946.637    2663.000
      347.962       929.536    2600.000       347.962       929.536    2663.000
      394.947       912.435    2600.000       394.947       912.435    2663.000
      441.932       895.334    2600.000       441.932       895.334    2663.000
      488.916       878.233    2600.000       488.916       878.233    2663.000
      535.901       861.132    2600.000       535.901       861.132    2663.000
      582.886       844.031    2600.000       582.886       844.031    2663.000
      629.870       826.930    2600.000       629.870       826.930    2663.000
      273.616       871.461    2600.000       273.616       871.461    2663.000
      320.601       854.360    2600.000       320.601       854.360    2663.000
      367.585       837.259    2600.000       367.585       837.259    2663.000
      414.570       820.158    2600.000       414.570       820.158    2663.000
      461.555       803.057    2600.000       461.555       803.057    2663.000
      508.539       785.956    2600.000       508.539       785.956    2663.000
      555.524       768.855    2600.000       555.524       768.855    2663.000
      602.509       751.754    2600.000       602.509       751.754    2663.000
      246.254       796.286    2600.000       246.254       796.286    2663.000
      293.239       779.185    2600.000       293.239       779.185    2663.000
      340.224       762.084    2600.000       340.224       762.084    2663.000
      387.208       744.983    2600.000       387.208       744.983    2663.000
      434.193       727.882    2600.000       434.193       727.882    2663.000
      481.178       710.781    2600.000       481.178       710.781    2663.000
      528.162       693.680    2600.000       528.162       693.680    2663.000
      575.147       676.579    2600.000       575.147       676.579    2663.000
      218.893       721.110    2600.000       218.893       721.110    2663.000
      265.878       704.009    2600.000       265.878       704.009    2663.000
      312.862       686.908    2600.000       312.862       686.908    2663.000
      359.847       669.807    2600.000       359.847       669.807    2663.000
      406.831       652.706    2600.000       406.831       652.706    2663.000
      453.816       635.605    2600.000       453.816       635.605    2663.000
      500.801       618.504    2600.000       500.801       618.504    2663.000
      547.785       601.403    2600.000       547.785       601.403    2663.000
      191.531       645.935    2600.000       191.531       645.935    2663.000
      238.516       628.834    2600.000       238.516       628.834    2663.000
      285.501       611.733    2600.000       285.501       611.733    2663.000
      332.485       594.632    2600.000       332.485       594.632    2663.000
      379.470       577.531    2600.000       379.470       577.531    2663.000
      426.454       560.430    2600.000       426.454       560.430    2663.000
      473.439       543.329    2600.000       473.439       543.329    2663.000
      520.424       526.228    2600.000       520.424       526.228    2663.000
      164.170       570.760    2600.000       164.170       570.760    2663.000
      211.154       553.659    2600.000       211.154       553.659    2663.000
      258.139       536.558    2600.000       258.139       536.558    2663.000
      305.124       519.456    2600.000       305.124       519.456    2663.000
      352.108       502.355    2600.000       352.108       502.355    2663.000
      399.093       485.254    2600.000       399.093       485.254    2663.000
      446.077       468.153    2600.000       446.077       468.153    2663.000
      493.062       451.052    2600.000       493.062       451.052    2663.000
      136.808       495.584    2600.000       136.808       495.584    2663.000
      183.793       478.483    2600.000       183.793       478.483    2663.000
      230.777       461.382    2600.000       230.777       461.382    2663.000
      277.762       444.281    2600.000       277.762       444.281    2663.000
      324.747       427.180    2600.000       324.747       427.180    2663.000
      371.731       410.079    2600.000       371.731       410.079    2663.000
      418.716       392.978    2600.000       418.716       392.978    2663.000
      465.700       375.877    2600.000       465.700       375.877    2663.000
      109.446       420.409    2600.000       109.446       420.409    2663.000
      156.431       403.308    2600.000       156.431       403.308    2663.000
      203.416       386.207    2600.000       203.416       386.207    2663.000
      250.400       369.106    2600.000       250.400       369.106    2663.000
      297.385       352.005    2600.000       297.385       352.005    2663.000
      344.370       334.904    2600.000       344.370       334.904    2663.000
      391.354       317.803    2600.000       391.354       317.803    2663.000
      438.339       300.702    2600.000       438.339       300.702    2663.000
       82.085       345.233    2600.000        82.085       345.233    2663.000
      129.069       328.132    2600.000       129.069       328.132    2663.000
      176.054       311.031    2600.000       176.054       311.031    2663.000
      223.039       293.930    2600.000       223.039       293.930    2663.000
      270.023       276.829    2600.000       270.023       276.829    2663.000
      317.008       259.728    2600.000       317.008       259.728    2663.000
      363.993       242.627    2600.000       363.993       242.627    2663.000
      410.977       225.526    2600.000       410.977       225.526    2663.000
       54.723       270.058    2600.000        54.723       270.058    2663.000
      101.708       252.957    2600.000       101.708       252.957    2663.000
      148.692       235.856    2600.000       148.692       235.856    2663.000
      195.677       218.755    2600.000       195.677       218.755    2663.000
      242.662       201.654    2600.000       242.662       201.654    2663.000
      289.646       184.553    2600.000       289.646       184.553    2663.000
      336.631       167.452    2600.000       336.631       167.452    2663.000
      383.616       150.351    2600.000       383.616       150.351    2663.000
       27.362       194.882    2600.000        27.362       194.882    2663.000
       74.346       177.781    2600.000        74.346       177.781    2663.000
      121.331       160.680    2600.000       121.331       160.680    2663.000
      168.316       143.579    2600.000       168.316       143.579    2663.000
      215.300       126.478    2600.000       215.300       126.478    2663.000
      262.285       109.377    2600.000       262.285       109.377    2663.000
      309.269        92.276    2600.000       309.269        92.276    2663.000
      356.254        75.175    2600.000       356.254        75.175    2663.000
        0.000       119.707    2600.000         0.000       119.707    2663.000
       46.985       102.606    2600.000        46.985       102.606    2663.000
       93.969        85.505    2600.000        93.969        85.505    2663.000
      140.954        68.404    2600.000       140.954        68.404    2663.000
      187.939        51.303    2600.000       187.939        51.303    2663.000
      234.923        34.202    2600.000       234.923        34.202    2663.000
      281.908        17.101    2600.000       281.908        17.101    2663.000
      328.892         0.000    2600.000       328.892         0.000    2663.000
  /

ZCORN
   2600.000    2600.000    2600.000    2600.000    2600.000    2600.000 
   2600.000    2600.000    2600.000    2600.000    2600.000    2600.000 
   2600.000    2600.000 
   2600.000    2600.000    2600.000    2600.000    2600.000    2600.000 
   2600.000    2600.000    2600.000    2600.000    2600.000    2600.000 
   2600.000    2600.000 
   2600.000    2600.000    2600.000    2600.000    2600.000    2600.000 
   2600.000    2600.000    2600.000    2600.000    2600.000    2600.000 
   2600.000    2600.000 
   2600.000    2600.000    2600.000    2600.000    2600.000    2600.000 
   2600.000    2600.000    2600.000    2600.000    2600.000    2600.000 
   2600.000    2600.000 
   2600.000    2600.000    2600.000    2600.000    2600.000    2600.000 
   2600.000    2600.000    2600.000    2600.000    2600.000    2600.000 
   2600.000    2600.000 
   2600.000    2600.000    2600.000    2600.000    2600.000    2600.000 
   2600.000    2600.000    2600.000    2600.000    2600.000    2600.000 
   2600.000    2600.000 
   2600.000    2600.000    2600.000    2600.000    2600.000    2600.000 
   2600.000    2600.000    2600.000    2600.000    2600.000    2600.000 
   2600.000    2600.000 
   2600.000    2600.000    2600.000    2600.000    2600.000    2600.000 
   2600.000    2600.000    2600.000    2600.000    2600.000    2600.000 
   2600.000    2600.000 
   2600.000    2600.000    2600.000    2600.000    2600.000    2600.000 
   2600.000    2600.000    2600.000    2600.000    2600.000    2600.000 
   2600.000    2600.000 
   2600.000    2600.000    2600.000    2600.000    2600.000    2600.000 
   2600.000    2600.000    2600.000    2600.000    2600.000    2600.000 
   2600.000    2600.000 
   2600.000    2600.000    2600.000    2600.000    2600.000    2600.000 
   2600.000    2600.000    2600.000    2600.000    2600.000    2600.000 
   2600.000    2600.000 
   2600.000    2600.000    2600.000    2600.000    2600.000    2600.000 
   2600.000    2600.000    2600.000    2600.000    2600.000    2600.000 
   2600.000    2600.000 
   2600.000    2600.000    2600.000    2600.000    2600.000    2600.000 
   2600.000    2600.000    2600.000    2600.000    2600.000    2600.000 
   2600.000    2600.000 
   2600.000    2600.000    2600.000    2600.000    2600.000    2600.000 
   2600.000    2600.000    2600.000    2600.000    2600.000    2600.000 
   2600.000    2600.000 
   2600.000    2600.000    2600.000    2600.000    2600.000    2600.000 
   2600.000    2600.000    2600.000    2600.000    2600.000    2600.000 
   2600.000    2600.000 
   2600.000    2600.000    2600.000    2600.000    2600.000    2600.000 
   2600.000    2600.000    2600.000    2600.000    2600.000    2600.000 
   2600.000    2600.000 
   2600.000    2600.000    2600.000    2600.000    2600.000    2600.000 
   2600.000    2600.000    2600.000    2600.000    2600.000    2600.000 
   2600.000    2600.000 
   2600.000    2600.000    2600.000    2600.000    2600.000    2600.000 
   2600.000    2600.000    2600.000    2600.000    2600.000    2600.000 
   2600.000    2600.000 
   2600.000    2600.000    2600.000    2600.000    2600.000    2600.000 
   2600.000    2600.000    2600.000    2600.000    2600.000    2600.000 
   2600.000    2600.000 
   2600.000    2600.000    2600.000    2600.000    2600.000    2600.000 
   2600.000    2600.000    2600.000    2600.000    2600.000    2600.000 
   2600.000    2600.000 
   2600.000    2600.000    2600.000    2600.000    2600.000    2600.000 
   2600.000    2600.000    2600.000    2600.000    2600.000    2600.000 
   2600.000    2600.000 
   2600.000    2600.000    2600.000    2600.000    2600.000    2600.000 
   2600.000    2600.000    2600.000    2600.000    2600.000    2600.000 
   2600.000    2600.000 
   2600.000    2600.000    2600.000    2600.000    2600.000    2600.000 
   2600.000    2600.000    2600.000    2600.000    2600.000    2600.000 
   2600.000    2600.000 
   2600.000    2600.000    2600.000    2600.000    2600.000    2600.000 
   2600.000    2600.000    2600.000    2600.000    2600.000    2600.000 
   2600.000    2600.000 
   2600.000    2600.000    2600.000    2600.000    2600.000    2600.000 
   2600.000    2600.000    2600.000    2600.000    2600.000    2600.000 
   2600.000    2600.000 
   2600.000    2600.000    2600.000    2600.000    2600.000    2600.000 
   2600.000    2600.000    2600.000    2600.000    2600.000    2600.000 
   2600.000    2600.000 
   2600.000    2600.000    2600.000    2600.000    2600.000    2600.000 
   2600.000    2600.000    2600.000    2600.000    2600.000    2600.000 
   2600.000    2600.000 
   2600.000    2600.000    2600.000    2600.000    2600.000    2600.000 
   2600.000    2600.000    2600.000    2600.000    2600.000    2600.000 
   2600.000    2600.000 
   2600.000    2600.000    2600.000    2600.000    2600.000    2600.000 
   2600.000    2600.000    2600.000    2600.000    2600.000    2600.000 
   2600.000    2600.000 
   2600.000    2600.000    2600.000    2600.000    2600.000    2600.000 
   2600.000    2600.000    2600.000    2600.000    2600.000    2600.000 
   2600.000    2600.000 
   2600.000    2600.000    2600.000    2600.000    2600.000    2600.000 
   2600.000    2600.000    2600.000    2600.000    2600.000    2600.000 
   2600.000    2600.000 
   2600.000    2600.000    2600.000    2600.000    2600.000    2600.000 
   2600.000    2600.000    2600.000    2600.000    2600.000    2600.000 
   2600.000    2600.000 
   2600.000    2600.000    2600.000    2600.000    2600.000    2600.000 
   2600.000    2600.000    2600.000    2600.000    2600.000    2600.000 
   2600.000    2600.000 
   2600.000    2600.000    2600.000    2600.000    2600.000    2600.000 
   2600.000    2600.000    2600.000    2600.000    2600.000    2600.000 
   2600.000    2600.000 
   2600.000    2600.000    2600.000    2600.000    2600.000    2600.000 
   2600.000    2600.000    2600.000    2600.000    2600.000    2600.000 
   2600.000    2600.000 
   2600.000    2600.000    2600.000    2600.000    2600.000    2600.000 
   2600.000    2600.000    2600.000    2600.000    2600.000    2600.000 
   2600.000    2600.000 
   2603.000    2603.000    2603.000    2603.000    2603.000    2603.000 
   2603.000    2603.000    2603.000    2603.000    2603.000    2603.000 
   2603.000    2603.000 
   2603.000    2603.000    2603.000    2603.000    2603.000    2603.000 
   2603.000    2603.000    2603.000    2603.000    2603.000    2603.000 
   2603.000    2603.000    2603.000    2603.000    2603.000    2603.000 
   2603.000    2603.000    2603.000    2603.000    2603.000    2603.000 
   2603.000    2603.000    2603.000    2603.000 
   2603.000    2603.000    2603.000    2603.000    2603.000    2603.000 
   2603.000    2603.000    2603.000    2603.000    2603.000    2603.000 
   2603.000    2603.000    2603.000    2603.000    2603.000    2603.000 
   2603.000    2603.000    2603.000    2603.000    2603.000    2603.000 
   2603.000    2603.000    2603.000    2603.000 
   2603.000    2603.000    2603.000    2603.000    2603.000    2603.000 
   2603.000    2603.000    2603.000    2603.000    2603.000    2603.000 
   2603.000    2603.000    2603.000    2603.000    2603.000    2603.000 
   2603.000    2603.000    2603.000    2603.000    2603.000    2603.000 
   2603.000    2603.000    2603.000    2603.000 
   2603.000    2603.000    2603.000    2603.000    2603.000    2603.000 
   2603.000    2603.000    2603.000    2603.000    2603.000    2603.000 
   2603.000    2603.000    2603.000    2603.000    2603.000    2603.000 
   2603.000    2603.000    2603.000    2603.000    2603.000    2603.000 
   2603.000    2603.000    2603.000    2603.000 
   2603.000    2603.000    2603.000    2603.000    2603.000    2603.000 
   2603.000    2603.000    2603.000    2603.000    2603.000    2603.000 
   2603.000    2603.000    2603.000    2603.000    2603.000    2603.000 
   2603.000    2603.000    2603.000    2603.000    2603.000    2603.000 
   2603.000    2603.000    2603.000    2603.000 
   2603.000    2603.000    2603.000    2603.000    2603.000    2603.000 
   2603.000    2603.000    2603.000    2603.000    2603.000    2603.000 
   2603.000    2603.000    2603.000    2603.000    2603.000    2603.000 
   2603.000    2603.000    2603.000    2603.000    2603.000    2603.000 
   2603.000    2603.000    2603.000    2603.000 
   2603.000    2603.000    2603.000    2603.000    2603.000    2603.000 
   2603.000    2603.000    2603.000    2603.000    2603.000    2603.000 
   2603.000    2603.000    2603.000    2603.000    2603.000    2603.000 
   2603.000    2603.000    2603.000    2603.000    2603.000    2603.000 
   2603.000    2603.000    2603.000    2603.000 
   2603.000    2603.000    2603.000    2603.000    2603.000    2603.000 
   2603.000    2603.000    2603.000    2603.000    2603.000    2603.000 
   2603.000    2603.000    2603.000    2603.000    2603.000    2603.000 
   2603.000    2603.000    2603.000    2603.000    2603.000    2603.000 
   2603.000    2603.000    2603.000    2603.000 
   2603.000    2603.000    2603.000    2603.000    2603.000    2603.000 
   2603.000    2603.000    2603.000    2603.000    2603.000    2603.000 
   2603.000    2603.000    2603.000    2603.000    2603.000    2603.000 
   2603.000    2603.000    2603.000    2603.000    2603.000    2603.000 
   2603.000    2603.000    2603.000    2603.000 
   2603.000    2603.000    2603.000    2603.000    2603.000    2603.000 
   2603.000    2603.000    2603.000    2603.000    2603.000    2603.000 
   2603.000    2603.000    2603.000    2603.000    2603.000    2603.000 
   2603.000    2603.000    2603.000    2603.000    2603.000    2603.000 
   2603.000    2603.000    2603.000    2603.000 
   2603.000    2603.000    2603.000    2603.000    2603.000    2603.000 
   2603.000    2603.000    2603.000    2603.000    2603.000    2603.000 
   2603.000    2603.000    2603.000    2603.000    2603.000    2603.000 
   2603.000    2603.000    2603.000    2603.000    2603.000    2603.000 
   2603.000    2603.000    2603.000    2603.000 
   2603.000    2603.000    2603.000    2603.000    2603.000    2603.000 
   2603.000    2603.000    2603.000    2603.000    2603.000    2603.000 
   2603.000    2603.000    2603.000    2603.000    2603.000    2603.000 
   2603.000    2603.000    2603.000    2603.000    2603.000    2603.000 
   2603.000    2603.000    2603.000    2603.000 
   2603.000    2603.000    2603.000    2603.000    2603.000    2603.000 
   2603.000    2603.000    2603.000    2603.000    2603.000    2603.000 
   2603.000    2603.000    2603.000    2603.000    2603.000    2603.000 
   2603.000    2603.000    2603.000    2603.000    2603.000    2603.000 
   2603.000    2603.000    2603.000    2603.000 
   2603.000    2603.000    2603.000    2603.000    2603.000    2603.000 
   2603.000    2603.000    2603.000    2603.000    2603.000    2603.000 
   2603.000    2603.000    2603.000    2603.000    2603.000    2603.000 
   2603.000    2603.000    2603.000    2603.000    2603.000    2603.000 
   2603.000    2603.000    2603.000    2603.000 
   2603.000    2603.000    2603.000    2603.000    2603.000    2603.000 
   2603.000    2603.000    2603.000    2603.000    2603.000    2603.000 
   2603.000    2603.000    2603.000    2603.000    2603.000    2603.000 
   2603.000    2603.000    2603.000    2603.000    2603.000    2603.000 
   2603.000    2603.000    2603.000    2603.000 
   2603.000    2603.000    2603.000    2603.000    2603.000    2603.000 
   2603.000    2603.000    2603.000    2603.000    2603.000    2603.000 
   2603.000    2603.000    2603.000    2603.000    2603.000    2603.000 
   2603.000    2603.000    2603.000    2603.000    2603.000    2603.000 
   2603.000    2603.000    2603.000    2603.000 
   2603.000    2603.000    2603.000    2603.000    2603.000    2603.000 
   2603.000    2603.000    2603.000    2603.000    2603.000    2603.000 
   2603.000    2603.000    2603.000    2603.000    2603.000    2603.000 
   2603.000    2603.000    2603.000    2603.000    2603.000    2603.000 
   2603.000    2603.000    2603.000    2603.000 
   2603.000    2603.000    2603.000    2603.000    2603.000    2603.000 
   2603.000    2603.000    2603.000    2603.000    2603.000    2603.000 
   2603.000    2603.000    2603.000    2603.000    2603.000    2603.000 
   2603.000    2603.000    2603.000    2603.000    2603.000    2603.000 
   2603.000    2603.000    2603.000    2603.000 
   2603.000    2603.000    2603.000    2603.000    2603.000    2603.000 
   2603.000    2603.000    2603.000    2603.000    2603.000    2603.000 
   2603.000    2603.000 
   2603.000    2603.000    2603.000    2603.000    2603.000    2603.000 
   2603.000    2603.000    2603.000    2603.000    2603.000    2603.000 
   2603.000    2603.000 
   2603.000    2603.000    2603.000    2603.000    2603.000    2603.000 
   2603.000    2603.000    2603.000    2603.000    2603.000    2603.000 
   2603.000    2603.000 
   2603.000    2603.000    2603.000    2603.000    2603.000    2603.000 
   2603.000    2603.000    2603.000    2603.000    2603.000    2603.000 
   2603.000    2603.000 
   2603.000    2603.000    2603.000    2603.000    2603.000    2603.000 
   2603.000    2603.000    2603.000    2603.000    2603.000    2603.000 
   2603.000    2603.000 
   2603.000    2603.000    2603.000    2603.000    2603.000    2603.000 
   2603.000    2603.000    2603.000    2603.000    2603.000    2603.000 
   2603.000    2603.000 
   2603.000    2603.000    2603.000    2603.000    2603.000    2603.000 
   2603.000    2603.000    2603.000    2603.000    2603.000    2603.000 
   2603.000    2603.000 
   2603.000    2603.000    2603.000    2603.000    2603.000    2603.000 
   2603.000    2603.000    2603.000    2603.000    2603.000    2603.000 
   2603.000    2603.000 
   2603.000    2603.000    2603.000    2603.000    2603.000    2603.000 
   2603.000    2603.000    2603.000    2603.000    2603.000    2603.000 
   2603.000    2603.000 
   2603.000    2603.000    2603.000    2603.000    2603.000    2603.000 
   2603.000    2603.000    2603.000    2603.000    2603.000    2603.000 
   2603.000    2603.000 
   2603.000    2603.000    2603.000    2603.000    2603.000    2603.000 
   2603.000    2603.000    2603.000    2603.000    2603.000    2603.000 
   2603.000    2603.000 
   2603.000    2603.000    2603.000    2603.000    2603.000    2603.000 
   2603.000    2603.000    2603.000    2603.000    2603.000    2603.000 
   2603.000    2603.000 
   2603.000    2603.000    2603.000    2603.000    2603.000    2603.000 
   2603.000    2603.000    2603.000    2603.000    2603.000    2603.000 
   2603.000    2603.000 
   2603.000    2603.000    2603.000    2603.000    2603.000    2603.000 
   2603.000    2603.000    2603.000    2603.000    2603.000    2603.000 
   2603.000    2603.000 
   2603.000    2603.000    2603.000    2603.000    2603.000    2603.000 
   2603.000    2603.000    2603.000    2603.000    2603.000    2603.000 
   2603.000    2603.000 
   2603.000    2603.000    2603.000    2603.000    2603.000    2603.000 
   2603.000    2603.000    2603.000    2603.000    2603.000    2603.000 
   2603.000    2603.000 
   2603.000    2603.000    2603.000    2603.000    2603.000    2603.000 
   2603.000    2603.000    2603.000    2603.000    2603.000    2603.000 
   2603.000    2603.000 
   2603.000    2603.000    2603.000    2603.000    2603.000    2603.000 
   2603.000    2603.000    2603.000    2603.000    2603.000    2603.000 
   2603.000    2603.000 
   2603.000    2603.000    2603.000    2603.000    2603.000    2603.000 
   2603.000    2603.000    2603.000    2603.000    2603.000    2603.000 
   2603.000    2603.000 
   2603.000    2603.000    2603.000    2603.000    2603.000    2603.000 
   2603.000    2603.000    2603.000    2603.000    2603.000    2603.000 
   2603.000    2603.000 
   2603.000    2603.000    2603.000    2603.000    2603.000    2603.000 
   2603.000    2603.000    2603.000    2603.000    2603.000    2603.000 
   2603.000    2603.000 
   2603.000    2603.000    2603.000    2603.000    2603.000    2603.000 
   2603.000    2603.000    2603.000    2603.000    2603.000    2603.000 
   2603.000    2603.000 
   2603.000    2603.000    2603.000    2603.000    2603.000    2603.000 
   2603.000    2603.000    2603.000    2603.000    2603.000    2603.000 
   2603.000    2603.000 
   2603.000    2603.000    2603.000    2603.000    2603.000    2603.000 
   2603.000    2603.000    2603.000    2603.000    2603.000    2603.000 
   2603.000    2603.000 
   2603.000    2603.000    2603.000    2603.000    2603.000    2603.000 
   2603.000    2603.000    2603.000    2603.000    2603.000    2603.000 
   2603.000    2603.000 
   2603.000    2603.000    2603.000    2603.000    2603.000    2603.000 
   2603.000    2603.000    2603.000    2603.000    2603.000    2603.000 
   2603.000    2603.000 
   2603.000    2603.000    2603.000    2603.000    2603.000    2603.000 
   2603.000    2603.000    2603.000    2603.000    2603.000    2603.000 
   2603.000    2603.000 
   2603.000    2603.000    2603.000    2603.000    2603.000    2603.000 
   2603.000    2603.000    2603.000    2603.000    2603.000    2603.000 
   2603.000    2603.000 
   2603.000    2603.000    2603.000    2603.000    2603.000    2603.000 