-- This reservoir simulation deck is made available under the Open Database
-- License: http://opendatacommons.org/licenses/odbl/1.0/. Any rights in
-- individual contents of the database are licensed under the Database Contents
-- License: http://opendatacommons.org/licenses/dbcl/1.0/

-- Copyright (C) 2024 Equinor


SPECGRID
 46 28 22 1 F /

COORD
 455079.8293 7323092.9639 3290.6320 455077.3185 7323085.6140 3442.9810
 455250.4842 7322853.0676 3315.6450 455237.8222 7322858.1454 3457.4440
 455420.3622 7322612.1400 3297.4430 455397.7353 7322632.8568 3457.0700
 455598.2359 7322357.8787 3159.6420 455561.0549 7322403.0883 3416.6950
 455762.3291 7322114.1218 3196.6990 455738.6352 7322149.7007 3330.4170
 456039.1951 7321648.3608 2564.6330 455995.4137 7321735.2735 2836.8660
 456073.1658 7321541.6307 2560.7450 455998.0136 7321616.2949 2838.5320
 456103.1131 7321436.1701 2555.4310 456011.3522 7321489.4530 2833.9270
 456130.1396 7321382.7138 2554.2130 456053.7545 7321403.6224 2830.7920
 456157.6573 7321327.5831 2551.5710 456094.5179 7321318.2655 2825.0570
 456184.9453 7321273.4451 2549.1630 456133.1884 7321230.7234 2822.1080
 456211.3951 7321221.4508 2547.6320 456171.5535 7321138.5868 2818.1640
 456235.9299 7321169.5646 2554.5410 456209.8433 7321036.1357 2825.7430
 456272.7446 7321018.5631 2555.1720 456234.8276 7321014.0093 2824.9010
 456302.3232 7320954.1739 2555.6680 456264.5961 7320925.5494 2824.6360
 456332.2103 7320885.2011 2556.8590 456295.2793 7320843.7785 2822.7810
 456362.3034 7320814.6213 2556.8140 456325.6023 7320761.8322 2824.7890
 456392.4030 7320743.5488 2557.7580 456356.4329 7320680.9481 2826.0290
 456422.5905 7320671.4294 2558.6300 456387.7277 7320600.1354 2828.3130
 456452.9975 7320597.2095 2558.6100 456419.4151 7320520.6669 2827.0850
 456490.6585 7320523.0959 2556.7840 456459.5691 7320447.6362 2822.9370
 456529.0433 7320447.5062 2551.7670 456500.5882 7320375.8560 2817.6610
 456568.0032 7320369.1941 2547.2220 456543.3062 7320304.7396 2812.1050
 456607.3485 7320287.9061 2545.0060 456587.9360 7320233.9082 2806.2990
 456647.8988 7320204.5888 2543.3820 456634.2986 7320162.2769 2804.7630
 456690.8546 7320118.3050 2540.3980 456683.3515 7320089.8186 2797.0870
 456738.1391 7320027.4235 2530.3750 456735.4345 7320015.2039 2785.9750
 456794.6792 7319924.7248 2512.7690 456791.3873 7319935.1678 2757.8700
 456813.5602 7319897.4060 2504.1620 456842.1091 7319787.4236 2753.1780
 456917.9280 7319583.6795 2796.9180 456976.9074 7319383.9934 3002.0960
 456953.8863 7319554.9099 2780.0660 457012.4682 7319343.6697 2992.8880
 456990.4213 7319529.2117 2760.0830 457048.2729 7319304.0596 2980.9970
 457042.0212 7319445.5139 2795.6040 457087.3434 7319251.1934 2996.2510
 457086.0781 7319390.9060 2795.3980 457124.5432 7319204.9115 2998.1240
 457129.0167 7319342.2039 2787.0180 457161.0983 7319161.2186 2997.1610
 457172.6903 7319290.2327 2782.5240 457197.6316 7319117.3418 2988.0490
 457216.9235 7319235.1080 2779.6750 457234.2791 7319074.5533 2977.7410
 457261.2297 7319178.4217 2774.2930 457271.4751 7319028.5508 2974.0210
 457305.6010 7319122.3601 2762.8200 457308.9247 7318982.4502 2968.9450
 457350.2052 7319067.2993 2748.5860 457346.7315 7318935.3733 2959.9710
 457395.0005 7319009.2400 2736.2390 457385.0475 7318889.2937 2946.7820
 457439.9647 7318950.4413 2723.5390 457424.0561 7318843.1102 2933.9050
 457485.9908 7318882.2760 2710.6440 457463.8251 7318785.4654 2925.2070
 457532.0387 7318812.9016 2698.3750 457503.4535 7318725.5906 2918.8310
 457577.8556 7318741.4062 2687.1200 457543.4635 7318666.1157 2912.0820
 457623.6779 7318669.4668 2677.4430 457583.6866 7318606.4891 2906.0650
 457669.3404 7318596.3900 2667.9200 457623.9596 7318546.2454 2899.9590
 455119.2267 7323156.6717 3276.9870 455116.8418 7323149.6048 3420.5380
 455292.0515 7322916.6814 3306.6100 455281.2646 7322921.1414 3433.0940
 455464.8392 7322675.3098 3291.9340 455445.2288 7322693.4726 3436.8980
 455645.0024 7322420.6610 3166.6640 455607.4000 7322467.3208 3448.8770
 455818.7436 7322167.2649 3164.6980 455790.0555 7322210.8947 3324.5360
 456114.6900 7321687.1945 2559.4800 456064.3021 7321780.8879 2826.8790
 456144.5308 7321588.7632 2560.0100 456055.8706 7321672.8159 2820.8900
 456168.7156 7321491.7624 2548.6130 456068.0751 7321542.2798 2826.9070
 456196.2971 7321436.2243 2547.0620 456114.0848 7321466.0071 2821.6380
 456223.6184 7321381.9392 2546.0320 456156.8736 7321384.9030 2816.2100
 456251.2338 7321328.5276 2544.2810 456196.6898 7321299.2722 2814.9630
 456278.9528 7321278.1915 2543.1550 456234.4756 7321205.9751 2814.5000
 456305.7614 7321227.7207 2549.5050 456270.2762 7321094.4822 2825.7800
 456336.8584 7321109.2116 2552.0760 456299.9320 7321046.7032 2824.0170
 456366.8321 7321026.3554 2553.6340 456330.7236 7320978.8415 2825.5430
 456396.8259 7320952.0968 2553.5870 456361.9953 7320902.5940 2825.0070
 456426.9467 7320880.1002 2553.9420 456393.6024 7320823.3543 2825.4860
 456457.0223 7320809.4478 2555.9650 456425.1258 7320741.5355 2827.8890
 456487.5780 7320738.4245 2555.4130 456457.2108 7320660.2210 2827.5440
 456517.9905 7320665.6271 2556.6410 456489.2970 7320579.7334 2826.3520
 456555.0750 7320590.1551 2557.8900 456527.8203 7320506.9515 2824.6960
 456593.3705 7320513.1590 2554.6900 456567.6961 7320437.5239 2817.5780
 456632.8740 7320435.7287 2548.2790 456608.8678 7320367.1770 2815.3110
 456671.5604 7320353.1366 2546.7810 456652.9240 7320300.0512 2806.0490
 456711.3976 7320269.7912 2544.7640 456697.8384 7320230.1178 2807.2920
 456753.2052 7320184.8705 2541.7550 456744.6109 7320160.0080 2802.2420
 456798.1935 7320096.4574 2531.7370 456793.3365 7320088.3302 2791.4000
 456847.7866 7320001.5814 2514.5030 456844.1545 7320013.2049 2762.1150
 456871.6419 7319969.2296 2507.0380 456902.5243 7319860.5234 2753.1250
 456979.3056 7319673.2655 2778.4320 457050.2284 7319449.7829 3009.5600
 457019.3754 7319626.2121 2779.8510 457082.9020 7319410.8226 2998.1350
 457058.7278 7319584.1848 2773.3930 457115.8734 7319374.7873 2982.7090
 457106.3159 7319512.9326 2803.9050 457152.5738 7319326.7095 2995.5210
 457149.5117 7319459.6637 2803.9620 457188.8886 7319281.3723 2998.8100
 457192.0959 7319411.0620 2793.4200 457225.4596 7319235.5825 3000.0070
 457235.7088 7319359.5722 2786.1380 457262.1101 7319191.1117 2994.0830
 457280.2683 7319303.9917 2782.9010 457299.0356 7319146.7036 2985.1960
 457325.0206 7319248.1413 2776.8710 457336.4010 7319102.8731 2978.3580
 457370.0112 7319188.9326 2770.5860 457374.4205 7319055.2704 2975.4270
 457415.0245 7319132.9500 2757.8970 457412.7502 7319007.3196 2968.6620
 457460.3674 7319077.1924 2743.2100 457451.5971 7318961.5036 2955.0140
 457505.8715 7319018.5290 2731.5330 457490.9946 7318914.2401 2941.4740
 457551.8589 7318951.3685 2717.7540 457530.5952 7318856.6651 2932.7790
 457597.6836 7318882.3192 2706.7230 457570.6148 7318799.1647 2924.9600
 457643.3797 7318812.0586 2697.6530 457610.9225 7318740.3801 2917.0400
 457689.1853 7318740.9901 2688.6320 457651.1483 7318681.0086 2911.6090
 457735.1318 7318669.5444 2679.4310 457691.5362 7318621.1526 2906.2750
 455158.6707 7323219.9141 3269.0620 455156.0716 7323212.2121 3416.4790
 455334.2519 7322979.9451 3292.5720 455323.4669 7322984.8473 3416.5830
 455509.6451 7322737.5343 3281.0380 455491.7580 7322755.1398 3411.9180
 455691.5804 7322483.7877 3174.6510 455655.3477 7322529.8210 3460.1720
 455881.2590 7322211.7650 3098.1520 455840.7841 7322273.3102 3316.7580
 456188.9831 7321728.4560 2551.6430 456129.0416 7321831.8842 2817.9300
 456232.7423 7321624.9344 2540.2790 456104.9931 7321740.1378 2806.2040
 456235.6290 7321546.3981 2540.2040 456128.9263 7321597.9305 2810.7110
 456262.5702 7321489.3723 2539.9440 456177.8342 7321532.2953 2810.8780
 456289.2659 7321433.0017 2540.1780 456221.0920 7321455.8818 2808.9480
 456316.9016 7321377.5773 2539.6340 456261.2164 7321373.1126 2808.1900
 456346.4109 7321325.7350 2538.5700 456298.4977 7321282.6227 2807.4970
 456378.3897 7321285.2912 2541.7080 456327.8545 7321158.5068 2819.1990
 456401.8275 7321168.4129 2550.2200 456363.3785 7321108.6235 2818.9670
 456431.1507 7321088.0284 2550.4760 456396.2957 7321042.0602 2825.1830
 456460.9821 7321014.7571 2552.1330 456428.8607 7320966.1956 2826.7280
 456491.1185 7320944.2310 2552.8510 456461.3506 7320886.2088 2826.8610
 456521.3775 7320875.0772 2553.7700 456493.6152 7320802.7294 2828.9180
 456552.0010 7320807.5125 2550.6820 456526.2888 7320718.9201 2827.7940
 456581.4672 7320739.4392 2555.5340 456558.8923 7320631.9345 2826.5170
 456618.9271 7320660.3246 2555.5440 456595.3374 7320564.8535 2823.7030
 456656.9520 7320582.4740 2554.2780 456632.2961 7320497.5847 2820.4480
 456697.8519 7320504.5194 2551.7020 456672.1692 7320429.5841 2813.2720
 456734.7149 7320420.1354 2548.5480 456715.7460 7320366.5481 2808.2390
 456772.8834 7320337.0938 2547.6080 456759.5152 7320300.3005 2805.1880
 456812.7496 7320253.7717 2544.4580 456803.8611 7320232.2687 2799.0610
 456854.4018 7320168.8465 2537.8710 456849.0750 7320162.5155 2790.7820
 456897.6399 7320080.5732 2516.5490 456895.6850 7320089.4420 2764.4990
 456926.0222 7320044.0358 2512.5760 456959.7191 7319936.4985 2754.2520
 457044.5404 7319745.7904 2781.4770 457122.5880 7319517.9491 3016.3120
 457082.9972 7319698.4179 2785.9410 457151.7325 7319478.7651 3005.8800
 457121.7927 7319653.7985 2783.3480 457184.0972 7319438.2450 2993.6920
 457170.9342 7319575.6122 2821.2580 457219.6267 7319389.9108 3006.5880
 457211.7369 7319530.8036 2811.7090 457255.4827 7319342.8440 3014.0490
 457254.5862 7319481.1617 2800.8810 457290.4882 7319302.5780 3011.0980
 457299.3143 7319424.6036 2797.9800 457326.9365 7319258.6832 3007.0850
 457344.1803 7319368.7842 2795.1260 457363.9938 7319214.0784 3000.3470
 457389.3960 7319310.6238 2791.6460 457401.2481 7319173.3726 2987.0830
 457434.5946 7319253.7980 2786.3580 457439.7121 7319125.4009 2984.8560
 457479.9716 7319199.6446 2770.6040 457478.4967 7319079.6891 2977.8370
 457525.9770 7319146.2607 2751.2270 457517.9728 7319034.6340 2962.3250
 457572.2575 7319088.9919 2738.7890 457558.0210 7318987.5882 2948.5310
 457617.8151 7319020.6654 2727.8850 457597.7626 7318930.6737 2938.2160
 457663.8255 7318953.0826 2715.8740 457637.7342 7318872.9363 2930.4860
 457709.6666 7318884.0673 2706.7150 457677.6537 7318813.6569 2924.2800
 457755.4527 7318813.8194 2698.5940 457717.9449 7318754.7908 2917.9610
 457800.9938 7318742.8354 2691.8940 457758.4200 7318695.8070 2911.8550
 455198.1533 7323283.8865 3261.9400 455195.5746 7323275.7359 3412.1320
 455376.3841 7323043.4068 3276.2250 455365.8369 7323047.9271 3400.7940
 455552.9877 7322802.0890 3277.9640 455535.3220 7322819.1464 3405.5340
 455735.2527 7322550.8505 3203.2060 455704.8608 7322590.1898 3434.7980
 455935.4725 7322268.9003 3077.1530 455890.5600 7322336.8036 3310.9180
 456260.1916 7321774.6411 2540.0620 456191.9190 7321886.2373 2806.0460
 456315.9180 7321673.9200 2533.4250 456175.5942 7321793.7768 2800.1440
 456307.9857 7321596.8611 2533.9150 456207.4340 7321686.7834 2798.3130
 456328.7337 7321540.9381 2533.9840 456249.3369 7321611.2104 2802.1410
 456353.2447 7321482.5502 2535.2210 456289.9419 7321533.3906 2800.5490
 456380.0436 7321421.0502 2536.1830 456328.5681 7321455.6766 2801.8720
 456408.3227 7321350.2553 2532.8030 456367.9934 7321384.0878 2800.2850
 456445.3785 7321344.3187 2541.0280 456388.9229 7321218.1896 2813.3910
 456464.5114 7321207.0159 2543.8560 456431.0609 7321205.5236 2814.6770
 456494.9792 7321140.6038 2545.3700 456464.4896 7321121.6728 2815.5800
 456525.2297 7321074.7217 2546.5750 456497.2271 7321037.7095 2817.8630
 456555.3820 7321007.4118 2548.6130 456529.7693 7320953.0366 2821.6560
 456585.7268 7320940.2102 2551.0930 456562.2794 7320866.7863 2827.8390
 456616.0574 7320870.5353 2558.1060 456595.3231 7320780.5010 2829.2970
 456649.0823 7320791.2731 2559.4000 456626.5564 7320705.8837 2828.4590
 456685.8584 7320716.0149 2558.9090 456662.1370 7320637.5038 2827.1060
 456722.6586 7320639.5069 2558.1090 456699.0686 7320570.8822 2822.8310
 456760.0086 7320562.7807 2554.9180 456737.8267 7320504.2123 2816.7940
 456796.1509 7320483.7603 2552.7700 456778.5555 7320438.4188 2811.5560
 456832.7772 7320403.9403 2552.0440 456819.9507 7320371.7204 2807.4040
 456870.4938 7320323.6049 2549.8950 456861.5331 7320305.3761 2800.7660
 456909.1164 7320242.9422 2540.7970 456902.9909 7320237.9927 2791.1530
 456947.4061 7320160.1766 2521.2260 456944.1014 7320169.4516 2766.9320
 456977.5956 7320123.3171 2519.6010 457013.8968 7320014.7853 2759.1400
 457102.1936 7319821.6448 2791.8880 457182.1516 7319597.4676 3022.5180
 457140.5003 7319776.8265 2796.4210 457211.9404 7319555.0518 3014.1750
 457177.7672 7319738.9437 2794.0800 457241.0741 7319525.2286 2992.5510
 457227.8223 7319661.2864 2823.9260 457279.2146 7319469.8124 3012.1800
 457272.6380 7319603.1463 2821.9950 457316.2938 7319420.1948 3023.1820
 457316.5361 7319551.3134 2813.0480 457352.2900 7319377.7221 3020.3880
 457361.4948 7319496.4457 2808.8870 457388.7291 7319337.2887 3011.8170
 457407.3966 7319437.9224 2808.7770 457426.3461 7319294.8301 3002.6090
 457453.1212 7319380.7094 2804.9480 457465.3278 7319245.7285 2998.2100
 457498.8448 7319326.9244 2794.2910 457504.4007 7319198.6333 2994.8070
 457545.0512 7319271.6107 2778.2800 457543.8800 7319151.5571 2988.2300
 457591.6156 7319214.5858 2762.6810 457583.9871 7319105.9771 2973.0210
 457638.4026 7319156.6882 2751.1020 457624.7494 7319059.4950 2957.0160
 457684.0999 7319090.9026 2738.7500 457664.5442 7319003.1953 2946.0260
 457730.2713 7319024.8976 2724.2490 457704.3656 7318945.3035 2939.1150
 457775.6410 7318955.2317 2718.5970 457744.1616 7318886.8197 2934.3080
 457821.5104 7318886.4673 2709.8700 457783.7731 7318827.0939 2930.6250
 457867.1254 7318816.3646 2703.9710 457823.6770 7318768.1444 2924.9410
 455237.5623 7323347.0009 3261.9230 455235.0755 7323339.1407 3409.4910
 455418.2875 7323106.9104 3259.9030 455407.5864 7323111.6957 3392.3710
 455596.1737 7322866.6373 3278.9940 455580.2372 7322882.4584 3397.7180
 455781.2121 7322615.3230 3220.1200 455756.0893 7322648.2176 3387.5510
 455986.6656 7322330.7920 3071.4490 455940.7779 7322399.8703 3302.1360
 456324.2015 7321830.7664 2531.5170 456250.2167 7321947.9385 2799.6860
 456367.3066 7321708.7362 2544.4360 456242.1996 7321908.3862 2797.4650
 456363.3527 7321660.2151 2532.4580 456293.5861 7321774.5658 2793.8910
 456386.9183 7321595.7692 2530.6360 456324.9793 7321690.6790 2792.9620
 456413.6149 7321535.3425 2531.0370 456359.8936 7321609.0041 2793.4390
 456442.3665 7321474.2230 2531.7110 456395.1166 7321528.4346 2796.6650
 456472.5782 7321414.4337 2532.3030 456430.6577 7321449.9947 2800.2970
 456500.6347 7321406.8116 2540.0400 456461.1464 7321276.2241 2809.8290
 456526.8983 7321305.8746 2542.5300 456496.8111 7321229.8644 2811.6170
 456556.9313 7321223.2646 2544.1580 456530.4623 7321164.5398 2813.1080
 456588.1898 7321147.5066 2544.1640 456563.3141 7321090.4339 2815.7980
 456619.8184 7321074.5867 2546.0500 456595.9268 7321012.1242 2818.9290
 456651.5330 7321000.5439 2552.9090 456628.3808 7320932.4377 2824.1050
 456683.9810 7320925.8420 2558.6890 456661.1240 7320853.6806 2824.9410
 456717.4441 7320846.9292 2559.6740 456693.1276 7320777.9500 2826.7170
 456752.9071 7320773.1942 2560.2110 456727.5250 7320710.5618 2826.8430
 456788.2350 7320698.5607 2560.2430 456763.1047 7320644.1856 2824.3580
 456823.1649 7320623.3799 2558.4480 456800.7257 7320577.6324 2818.8870
 456857.2313 7320548.4696 2556.3820 456840.3457 7320510.7941 2812.9580
 456891.6961 7320472.6280 2555.3200 456880.2679 7320443.8892 2808.3800
 456927.5432 7320395.2693 2553.2990 456919.2484 7320378.3045 2803.6510
 456963.9797 7320316.8930 2548.4530 456957.2231 7320313.4220 2796.7350
 456999.3312 7320238.2242 2526.8680 456994.6776 7320247.9968 2772.7690
 457029.9385 7320201.9520 2527.4340 457066.2941 7320093.4171 2767.0500
 457152.4006 7319901.1447 2804.0700 457227.3388 7319685.7667 3028.4920
 457194.1602 7319854.2303 2808.4560 457260.6286 7319643.9953 3014.6700
 457241.2641 7319789.7553 2826.6910 457293.5461 7319610.7702 2992.3010
 457287.0585 7319731.1138 2839.3330 457332.7790 7319559.0982 3011.5810
 457331.8311 7319677.8439 2833.8070 457373.2467 7319502.6526 3028.0010
 457377.1885 7319624.4043 2825.2180 457411.6770 7319455.6703 3028.6210
 457423.2569 7319568.4230 2821.1100 457450.2329 7319410.1157 3023.1560
 457469.8577 7319510.8652 2819.6890 457489.4851 7319362.5692 3018.6130
 457516.6626 7319451.7711 2817.6320 457528.8656 7319316.5207 3014.1640
 457563.3124 7319394.0325 2809.5390 457568.6393 7319269.9293 3009.4160
 457610.1187 7319340.8762 2790.2170 457608.9037 7319224.7569 2999.4810
 457657.4174 7319284.5411 2774.4500 457649.8555 7319178.9236 2983.0470
 457704.7679 7319225.1318 2765.9110 457691.4925 7319132.2935 2966.0860
 457750.2359 7319159.8735 2753.5160 457731.2187 7319076.0028 2955.6600
 457795.8742 7319093.8229 2741.2650 457770.7884 7319017.5563 2951.3560
 457841.1167 7319025.4516 2736.3280 457810.6382 7318959.6855 2946.4980
 457886.3093 7318957.0853 2730.4790 457850.6073 7318901.4013 2942.4190
 457931.7955 7318888.3086 2723.6770 457890.8893 7318843.1710 2935.8910
 455277.0624 7323410.4076 3263.7410 455274.5270 7323402.9884 3409.7190
 455459.7230 7323171.0552 3246.8090 455448.7249 7323176.0828 3394.8080
 455641.8005 7322928.4947 3260.4040 455624.5039 7322946.1352 3391.3010
 455828.0794 7322678.5150 3222.3890 455808.0577 7322704.9784 3338.9890
 456037.8889 7322392.6315 3063.6990 455990.8988 7322463.2113 3294.6470
 456379.1599 7321896.7903 2532.1850 456306.3443 7322011.6199 2796.3940
 456402.5850 7321807.1363 2533.5350 456319.6088 7321934.6235 2792.6350
 456419.0488 7321732.0001 2528.3520 456353.0002 7321826.4528 2786.9180
 456441.9693 7321675.8770 2530.1750 456389.5443 7321744.2316 2786.3350
 456468.1334 7321620.3416 2530.0230 456426.3893 7321660.5830 2787.5700
 456495.9352 7321568.4682 2530.5060 456462.0722 7321575.4593 2795.1240
 456524.0683 7321522.7652 2533.8380 456498.0075 7321482.1582 2799.2630
 456552.1528 7321483.6950 2535.3210 456534.5438 7321341.3732 2806.2630
 456584.8042 7321382.7771 2541.7880 456565.3316 7321283.2149 2808.3640
 456617.2629 7321296.4295 2544.3980 456597.2804 7321218.5924 2809.3890
 456650.0744 7321216.6181 2545.6460 456629.9227 7321148.8420 2808.6500
 456683.3310 7321140.1576 2545.4130 456662.0661 7321073.1993 2816.1020
 456716.7448 7321063.1702 2552.2200 456694.6028 7320996.8709 2820.5800
 456750.8860 7320985.1986 2557.8690 456727.1212 7320921.4130 2821.1720
 456785.9585 7320904.9772 2559.7780 456759.4941 7320847.4394 2822.4290
 456820.1492 7320831.9343 2560.5650 456791.1754 7320782.9017 2824.6790
 456854.1714 7320757.7321 2562.0340 456824.6389 7320718.8879 2821.7640
 456887.4589 7320684.1566 2561.2430 456860.4118 7320652.2485 2820.9340
 456917.8217 7320614.2126 2558.6860 456901.7223 7320582.8127 2810.4510
 456949.1172 7320542.7264 2557.7490 456941.8402 7320514.6091 2807.4110
 456983.7932 7320467.2321 2557.1320 456978.5168 7320449.9537 2804.3140
 457020.4631 7320389.9746 2551.6080 457012.6114 7320387.9564 2802.1480
 457057.9213 7320311.1249 2536.5400 457045.8181 7320326.7276 2778.0440
 457085.6121 7320277.5742 2537.4860 457117.7221 7320173.2405 2774.4530
 457199.3547 7319983.0501 2814.9210 457267.7968 7319775.9277 3035.4910
 457244.7266 7319935.4711 2821.6780 457307.0878 7319729.7744 3022.7090
 457295.8332 7319866.7404 2846.1700 457346.3739 7319685.9551 3008.0070
 457343.4851 7319808.3529 2852.8040 457388.1485 7319633.4558 3025.4440
 457389.4940 7319756.9463 2842.7440 457429.0427 7319583.6522 3035.0450
 457436.7364 7319701.0494 2835.4800 457469.8237 7319534.0575 3038.2660
 457484.3208 7319643.3366 2831.7170 457510.2848 7319486.5444 3035.4420
 457532.1577 7319584.2040 2830.4960 457550.0371 7319445.0511 3023.3940
 457580.0107 7319524.0789 2830.1700 457590.9293 7319398.0733 3017.7770
 457627.6184 7319464.7205 2824.7420 457632.3042 7319346.7050 3018.0910
 457675.1835 7319408.4715 2807.7850 457673.6791 7319296.9425 3013.4150
 457723.1982 7319353.3290 2790.8390 457715.4741 7319250.4991 2997.0890
 457771.1616 7319293.4796 2783.3620 457757.7803 7319202.7122 2980.8550
 457816.2431 7319228.3237 2773.3100 457797.1492 7319145.3673 2974.1380
 457862.0280 7319164.0335 2759.2590 457836.6280 7319087.9916 2970.8580
 457907.6690 7319097.8529 2751.2390 457876.4380 7319031.1244 2965.3510
 457952.9009 7319030.2917 2746.4060 457916.2411 7318973.6586 2960.7420
 457998.6547 7318962.6368 2739.0260 457955.9650 7318915.3032 2955.0440
 455316.5432 7323474.3394 3266.6720 455313.9788 7323466.2370 3414.5180
 455500.3028 7323235.5041 3246.9450 455490.0799 7323240.1192 3398.7290
 455685.5076 7322992.9262 3242.8910 455667.7855 7323010.6839 3392.8540
 455873.5796 7322743.3058 3219.5490 455860.6867 7322760.5975 3290.2930
 456088.4062 7322454.8585 3055.1670 456040.1573 7322527.6774 3290.3750
 456425.5398 7321967.1393 2532.5190 456358.9654 7322076.0283 2793.5880
 456445.6495 7321886.6544 2530.0310 456381.5673 7321985.9424 2788.5790
 456465.2852 7321810.3744 2524.4190 456412.0007 7321883.8607 2781.1900
 456491.1404 7321752.4688 2524.6720 456452.5731 7321800.4754 2780.8670
 456517.8436 7321697.1294 2531.8750 456492.5728 7321714.5830 2781.6030
 456547.2978 7321642.8735 2532.5350 456529.2573 7321626.5914 2793.6580
 456577.3149 7321592.8828 2536.4590 456565.0859 7321531.5859 2796.7750
 456607.2944 7321548.2394 2541.4560 456601.2627 7321411.3288 2799.0590
 456642.8714 7321448.1203 2544.0870 456631.7603 7321347.9401 2805.9070
 456677.2288 7321362.0170 2545.9590 456663.3197 7321281.2646 2806.9180
 456711.7244 7321282.8854 2546.0590 456695.3997 7321209.8285 2809.2680
 456746.1515 7321204.3959 2547.7660 456727.9747 7321135.9917 2814.1870
 456781.0031 7321126.9094 2552.5830 456760.4200 7321059.9416 2820.8140
 456816.8751 7321047.8261 2556.4840 456792.9464 7320985.4411 2821.4220
 456854.5257 7320964.6498 2558.9990 456824.6571 7320913.6278 2824.3650
 456887.4223 7320891.8523 2561.6050 456852.0826 7320854.4879 2824.7640
 456921.2663 7320817.4744 2562.3290 456880.7258 7320794.7940 2824.1420
 456956.1610 7320740.5387 2559.6960 456913.2902 7320734.0298 2819.7440
 456977.0617 7320681.4316 2559.2800 456963.2788 7320652.2305 2812.7910
 457002.1798 7320617.1499 2559.9620 457008.3005 7320578.0737 2806.9450
 457037.9773 7320542.2352 2559.6990 457041.7685 7320516.6664 2807.5480
 457076.7185 7320463.8775 2557.7450 457071.6439 7320458.9267 2805.8210
 457116.5860 7320384.3100 2547.9880 457100.9963 7320400.9685 2783.4370
 457140.7185 7320355.4556 2545.6010 457169.7681 7320252.4430 2781.4520
 457244.4388 7320070.5253 2822.7100 457308.5844 7319864.8114 3044.3120
 457290.7131 7320032.5465 2822.6130 457352.3339 7319819.0052 3032.0200
 457339.4933 7319982.9040 2834.7270 457397.4313 7319765.8655 3027.1920
 457398.9900 7319888.3821 2864.9670 457444.8584 7319700.5400 3053.5080
 457446.4533 7319838.7695 2848.6260 457484.4200 7319664.7737 3044.2960
 457495.6123 7319781.1298 2841.5020 457526.6034 7319617.8302 3043.4220
 457545.2741 7319719.0447 2841.6440 457569.1226 7319568.3788 3042.2610
 457594.7665 7319655.6056 2844.9730 457611.8834 7319515.1203 3040.6360
 457643.4389 7319596.1420 2843.3070 457653.6791 7319470.1436 3030.1700
 457691.7290 7319542.5260 2829.6150 457695.9174 7319422.7122 3025.9360
 457740.4579 7319484.5224 2815.1870 457738.3785 7319371.3887 3025.7180
 457789.0416 7319422.3178 2809.6830 457780.9715 7319322.1019 3015.3500
 457837.3776 7319360.8568 2806.7170 457823.8232 7319271.9364 3001.8410
 457882.6919 7319298.6880 2792.5600 457863.5333 7319217.3089 2993.0900
 457927.8767 7319233.8461 2781.1450 457903.2306 7319161.0771 2989.2240
 457973.2942 7319168.6607 2772.1210 457942.9331 7319104.2208 2984.3880
 458018.2876 7319101.9597 2767.8020 457983.2091 7319047.7855 2977.0180
 458064.2798 7319035.6722 2757.1990 458023.5921 7318990.7925 2970.2720
 455356.0588 7323537.7934 3270.4910 455353.4585 7323529.6768 3420.4910
 455540.5460 7323300.7568 3258.0830 455531.6494 7323304.0024 3398.8340
 455727.8151 7323058.2257 3235.6340 455712.1508 7323074.3309 3386.5830
 455920.6126 7322806.3286 3202.6860 455912.8553 7322816.6222 3244.2980
 456138.1094 7322518.1686 3044.4330 456089.4297 7322591.7713 3281.5830
 456471.3211 7322036.4329 2519.9390 456405.3335 7322146.4164 2792.9930
 456490.1545 7321961.3262 2523.3400 456436.9825 7322047.4279 2788.3570
 456507.3986 7321888.1063 2524.9020 456469.6392 7321945.0912 2783.8770
 456535.2854 7321826.7551 2526.7470 456516.4157 7321858.2980 2783.2910
 456564.2544 7321767.4964 2531.5750 456560.5585 7321770.5028 2781.8380
 456597.1293 7321707.3117 2534.5420 456597.6813 7321683.2914 2790.5520
 456631.4074 7321647.6551 2538.1530 456631.6239 7321595.2716 2795.4410
 456665.9608 7321585.0022 2543.0010 456664.6106 7321503.5001 2795.9550
 456701.8702 7321504.0289 2547.2260 456696.2106 7321422.9918 2809.1660
 456737.5766 7321423.8770 2548.1560 456728.1321 7321349.8183 2809.3220
 456773.1990 7321345.8875 2546.4790 456760.5904 7321275.1317 2810.6430
 456808.5641 7321268.5779 2549.3840 456793.5170 7321199.4358 2814.4330
 456844.2949 7321192.3032 2551.4210 456826.7529 7321122.2591 2819.8210
 456880.9217 7321115.0544 2554.3080 456859.9538 7321047.3544 2820.0310
 456921.0495 7321027.1060 2561.1550 456889.1717 7320979.2577 2822.9550
 456953.8859 7320954.9446 2562.1080 456910.5907 7320926.0605 2824.2150
 456988.5426 7320880.9663 2558.9970 456931.4073 7320874.5770 2820.9860
 457017.7938 7320807.0000 2559.1470 456967.8822 7320807.0000 2818.0750
 457028.5290 7320758.5691 2558.8680 457029.7848 7320715.8714 2813.5580
 457039.3777 7320708.8969 2564.5660 457092.3635 7320621.4766 2815.6280
 457088.8718 7320620.2806 2563.7060 457111.9869 7320575.5579 2812.7950
 457132.8302 7320538.2231 2563.2410 457135.0404 7320525.7726 2810.3340
 457176.1153 7320456.3828 2553.3610 457160.6339 7320473.1375 2788.5310
 457197.8960 7320430.7463 2550.9430 457223.8016 7320330.7692 2787.9250
 457294.5236 7320150.5028 2834.1730 457353.1876 7319951.8717 3055.0170
 457337.0293 7320135.4875 2810.8210 457396.2408 7319920.1461 3031.8700
 457377.6985 7320128.4499 2784.6090 457438.7322 7319888.9628 3015.6510
 457452.8671 7319978.6581 2866.9180 457492.4766 7319808.6357 3047.0090
 457505.0131 7319915.7151 2858.1900 457539.4570 7319750.9700 3048.3710
 457555.8960 7319856.2635 2852.4250 457583.1327 7319706.0442 3040.2410
 457606.8785 7319792.7239 2854.7190 457627.2994 7319657.1514 3036.0400
 457657.1316 7319730.8408 2856.6260 457671.5999 7319605.7278 3035.3120
 457706.7262 7319672.3495 2850.4010 457715.8054 7319552.1105 3033.8150
 457756.2693 7319613.9755 2839.8110 457759.6216 7319498.7537 3034.8150
 457805.7351 7319553.8967 2831.6530 457803.2165 7319447.0933 3036.0660
 457854.9997 7319492.2682 2830.9390 457846.7601 7319395.9499 3031.0350
 457904.4625 7319433.4092 2824.8630 457890.4309 7319345.2299 3022.6320
 457949.3920 7319369.9809 2810.3770 457929.8997 7319289.5942 3014.4270
 457994.6009 7319306.2716 2799.1450 457969.8052 7319234.4117 3006.8190
 458039.3971 7319240.1837 2793.2350 458010.0003 7319178.4747 2999.5150
 458084.6448 7319174.6786 2786.4820 458050.3924 7319122.0200 2990.5010
 458129.7826 7319108.4977 2778.5170 458090.2768 7319064.7041 2985.8780
 455395.4864 7323601.5619 3278.7050 455393.1109 7323594.0535 3419.4870
 455580.7787 7323365.3981 3274.0930 455573.1218 7323368.4393 3396.3940
 455769.8099 7323124.4712 3235.3340 455755.8833 7323138.3385 3379.6970
 455964.6259 7322872.9008 3189.1110 455961.9801 7322876.4445 3204.6330
 456186.4893 7322582.7709 3033.9430 456136.3475 7322658.2421 3279.1210
 456522.8596 7322104.6393 2510.1560 456455.6845 7322216.0128 2792.3790
 456536.5911 7322033.5952 2518.5050 456491.5075 7322111.7702 2787.5660
 456551.6789 7321960.9548 2524.6360 456529.4577 7322004.7757 2782.5570
 456577.1953 7321899.4345 2525.6960 456583.0571 7321915.6580 2785.8240
 456604.5846 7321838.1955 2527.8120 456635.9549 7321824.4588 2792.2560
 456645.0646 7321771.4968 2534.5700 456669.0367 7321741.7209 2792.9740
 456685.0412 7321704.2694 2539.4570 456699.1667 7321659.1669 2794.4970
 456723.4810 7321634.5870 2544.7870 456729.4984 7321576.8129 2794.6020
 456761.0894 7321559.4512 2549.4900 456760.5729 7321497.8052 2803.7820
 456798.0486 7321482.6612 2551.6060 456792.2886 7321419.3912 2811.8260
 456834.6318 7321407.0022 2550.5340 456825.1038 7321343.2795 2809.5070
 456870.8042 7321331.9362 2551.5980 456858.7760 7321265.3155 2813.1940
 456906.2645 7321258.5422 2553.0660 456893.3573 7321184.2607 2820.0000
 456939.9549 7321192.1753 2556.6270 456931.2891 7321098.2521 2820.7280
 456986.9535 7321093.1263 2560.5000 456955.6293 7321042.7081 2821.8760
 457019.0608 7321019.4993 2562.1150 456973.1604 7320994.5871 2823.3020
 457051.5434 7320947.4988 2559.2160 456991.2553 7320946.0306 2820.3800
 457069.4719 7320887.5247 2558.8430 457040.6282 7320866.5706 2817.2040
 457083.4869 7320831.5549 2558.5910 457095.5567 7320780.8923 2814.1010
 457097.5681 7320774.0458 2568.9080 457152.9225 7320689.2954 2823.7610
 457145.0095 7320692.7975 2567.2410 457174.4838 7320642.9708 2817.9740
 457190.3808 7320610.8214 2566.0880 457196.3689 7320595.2717 2813.9740
 457235.8508 7320528.4580 2552.7810 457219.7600 7320545.8733 2793.2400
 457255.9209 7320505.0279 2554.5770 457279.4423 7320408.5588 2792.7170
 457345.4316 7320233.9785 2840.4760 457400.4779 7320037.8343 3066.7440
 457396.0905 7320199.0873 2835.2330 457448.8300 7319999.4305 3043.4120
 457439.7064 7320187.9665 2808.8860 457494.9970 7319962.7486 3023.0210
 457511.5289 7320053.9105 2878.4620 457551.4844 7319876.5310 3063.1120
 457564.5110 7319992.7948 2868.8000 457598.9806 7319821.7425 3065.9570
 457616.9308 7319930.5340 2864.6190 457644.2784 7319774.1481 3055.9660
 457669.1556 7319865.0890 2869.4980 457689.0432 7319728.0137 3047.0310
 457720.3828 7319802.1947 2870.9560 457734.1483 7319676.9647 3045.0950
 457770.7023 7319744.2012 2862.3210 457778.9512 7319626.4434 3042.3080
 457820.9862 7319684.6239 2854.2020 457823.7265 7319572.7873 3046.3480
 457871.1985 7319625.6337 2847.6360 457868.1433 7319518.9075 3051.5260
 457921.2039 7319563.9594 2847.7860 457912.4328 7319467.8886 3049.0780