-- This reservoir simulation deck is made available under the Open Database
-- License: http://opendatacommons.org/licenses/odbl/1.0/. Any rights in
-- individual contents of the database are licensed under the Database Contents
-- License: http://opendatacommons.org/licenses/dbcl/1.0/

-- Copyright (C) 2020 Equinor

-- Testing Numeric aquifers . Two separate aquifers attached to 
-- one side of the model. 


SPECGRID
 20 5 10 1 F / 

COORD
  2000.0000  2000.0000  2000.0000   1999.8691  2000.0000  2049.9829 
  2099.9657  2000.0000  2002.6177   2099.8348  2000.0000  2052.6006 
  2199.9315  2000.0000  2005.2354   2199.8006  2000.0000  2055.2183 
  2299.8972  2000.0000  2007.8531   2299.7663  2000.0000  2057.8360 
  2399.8629  2000.0000  2010.4708   2399.7320  2000.0000  2060.4536 
  2499.8287  2000.0000  2013.0885   2499.6978  2000.0000  2063.0713 
  2599.7944  2000.0000  2015.7062   2599.6635  2000.0000  2065.6890 
  2699.7601  2000.0000  2018.3239   2699.6292  2000.0000  2068.3067 
  2799.7259  2000.0000  2020.9416   2799.5950  2000.0000  2070.9244 
  2899.6916  2000.0000  2023.5593   2899.5607  2000.0000  2073.5421 
  2999.6573  2000.0000  2026.1769   2999.5264  2000.0000  2076.1598 
  3099.6231  2000.0000  2028.7946   3099.4922  2000.0000  2078.7775 
  3199.5888  2000.0000  2031.4123   3199.4579  2000.0000  2081.3952 
  3299.5545  2000.0000  2034.0300   3299.4236  2000.0000  2084.0129 
  3399.5203  2000.0000  2036.6477   3399.3894  2000.0000  2086.6306 
  3499.4860  2000.0000  2039.2654   3499.3551  2000.0000  2089.2483 
  3599.4517  2000.0000  2041.8831   3599.3208  2000.0000  2091.8660 
  3699.4175  2000.0000  2044.5008   3699.2866  2000.0000  2094.4837 
  3799.3832  2000.0000  2047.1185   3799.2523  2000.0000  2097.1014 
  3899.3489  2000.0000  2049.7362   3899.2180  2000.0000  2099.7191 
  3999.3146  2000.0000  2052.3539   3999.1838  2000.0000  2102.3368 
  2000.0000  2100.0000  2000.0000   1999.8691  2100.0000  2049.9829 
  2099.9657  2100.0000  2002.6177   2099.8348  2100.0000  2052.6006 
  2199.9315  2100.0000  2005.2354   2199.8006  2100.0000  2055.2183 
  2299.8972  2100.0000  2007.8531   2299.7663  2100.0000  2057.8360 
  2399.8629  2100.0000  2010.4708   2399.7320  2100.0000  2060.4536 
  2499.8287  2100.0000  2013.0885   2499.6978  2100.0000  2063.0713 
  2599.7944  2100.0000  2015.7062   2599.6635  2100.0000  2065.6890 
  2699.7601  2100.0000  2018.3239   2699.6292  2100.0000  2068.3067 
  2799.7259  2100.0000  2020.9416   2799.5950  2100.0000  2070.9244 
  2899.6916  2100.0000  2023.5593   2899.5607  2100.0000  2073.5421 
  2999.6573  2100.0000  2026.1769   2999.5264  2100.0000  2076.1598 
  3099.6231  2100.0000  2028.7946   3099.4922  2100.0000  2078.7775 
  3199.5888  2100.0000  2031.4123   3199.4579  2100.0000  2081.3952 
  3299.5545  2100.0000  2034.0300   3299.4236  2100.0000  2084.0129 
  3399.5203  2100.0000  2036.6477   3399.3894  2100.0000  2086.6306 
  3499.4860  2100.0000  2039.2654   3499.3551  2100.0000  2089.2483 
  3599.4517  2100.0000  2041.8831   3599.3208  2100.0000  2091.8660 
  3699.4175  2100.0000  2044.5008   3699.2866  2100.0000  2094.4837 
  3799.3832  2100.0000  2047.1185   3799.2523  2100.0000  2097.1014 
  3899.3489  2100.0000  2049.7362   3899.2180  2100.0000  2099.7191 
  3999.3146  2100.0000  2052.3539   3999.1838  2100.0000  2102.3368 
  2000.0000  2200.0000  2000.0000   1999.8691  2200.0000  2049.9829 
  2099.9657  2200.0000  2002.6177   2099.8348  2200.0000  2052.6006 
  2199.9315  2200.0000  2005.2354   2199.8006  2200.0000  2055.2183 
  2299.8972  2200.0000  2007.8531   2299.7663  2200.0000  2057.8360 
  2399.8629  2200.0000  2010.4708   2399.7320  2200.0000  2060.4536 
  2499.8287  2200.0000  2013.0885   2499.6978  2200.0000  2063.0713 
  2599.7944  2200.0000  2015.7062   2599.6635  2200.0000  2065.6890 
  2699.7601  2200.0000  2018.3239   2699.6292  2200.0000  2068.3067 
  2799.7259  2200.0000  2020.9416   2799.5950  2200.0000  2070.9244 
  2899.6916  2200.0000  2023.5593   2899.5607  2200.0000  2073.5421 
  2999.6573  2200.0000  2026.1769   2999.5264  2200.0000  2076.1598 
  3099.6231  2200.0000  2028.7946   3099.4922  2200.0000  2078.7775 
  3199.5888  2200.0000  2031.4123   3199.4579  2200.0000  2081.3952 
  3299.5545  2200.0000  2034.0300   3299.4236  2200.0000  2084.0129 
  3399.5203  2200.0000  2036.6477   3399.3894  2200.0000  2086.6306 
  3499.4860  2200.0000  2039.2654   3499.3551  2200.0000  2089.2483 
  3599.4517  2200.0000  2041.8831   3599.3208  2200.0000  2091.8660 
  3699.4175  2200.0000  2044.5008   3699.2866  2200.0000  2094.4837 
  3799.3832  2200.0000  2047.1185   3799.2523  2200.0000  2097.1014 
  3899.3489  2200.0000  2049.7362   3899.2180  2200.0000  2099.7191 
  3999.3146  2200.0000  2052.3539   3999.1838  2200.0000  2102.3368 
  2000.0000  2300.0000  2000.0000   1999.8691  2300.0000  2049.9829 
  2099.9657  2300.0000  2002.6177   2099.8348  2300.0000  2052.6006 
  2199.9315  2300.0000  2005.2354   2199.8006  2300.0000  2055.2183 
  2299.8972  2300.0000  2007.8531   2299.7663  2300.0000  2057.8360 
  2399.8629  2300.0000  2010.4708   2399.7320  2300.0000  2060.4536 
  2499.8287  2300.0000  2013.0885   2499.6978  2300.0000  2063.0713 
  2599.7944  2300.0000  2015.7062   2599.6635  2300.0000  2065.6890 
  2699.7601  2300.0000  2018.3239   2699.6292  2300.0000  2068.3067 
  2799.7259  2300.0000  2020.9416   2799.5950  2300.0000  2070.9244 
  2899.6916  2300.0000  2023.5593   2899.5607  2300.0000  2073.5421 
  2999.6573  2300.0000  2026.1769   2999.5264  2300.0000  2076.1598 
  3099.6231  2300.0000  2028.7946   3099.4922  2300.0000  2078.7775 
  3199.5888  2300.0000  2031.4123   3199.4579  2300.0000  2081.3952 
  3299.5545  2300.0000  2034.0300   3299.4236  2300.0000  2084.0129 
  3399.5203  2300.0000  2036.6477   3399.3894  2300.0000  2086.6306 
  3499.4860  2300.0000  2039.2654   3499.3551  2300.0000  2089.2483 
  3599.4517  2300.0000  2041.8831   3599.3208  2300.0000  2091.8660 
  3699.4175  2300.0000  2044.5008   3699.2866  2300.0000  2094.4837 
  3799.3832  2300.0000  2047.1185   3799.2523  2300.0000  2097.1014 
  3899.3489  2300.0000  2049.7362   3899.2180  2300.0000  2099.7191 
  3999.3146  2300.0000  2052.3539   3999.1838  2300.0000  2102.3368 
  2000.0000  2400.0000  2000.0000   1999.8691  2400.0000  2049.9829 
  2099.9657  2400.0000  2002.6177   2099.8348  2400.0000  2052.6006 
  2199.9315  2400.0000  2005.2354   2199.8006  2400.0000  2055.2183 
  2299.8972  2400.0000  2007.8531   2299.7663  2400.0000  2057.8360 
  2399.8629  2400.0000  2010.4708   2399.7320  2400.0000  2060.4536 
  2499.8287  2400.0000  2013.0885   2499.6978  2400.0000  2063.0713 
  2599.7944  2400.0000  2015.7062   2599.6635  2400.0000  2065.6890 
  2699.7601  2400.0000  2018.3239   2699.6292  2400.0000  2068.3067 
  2799.7259  2400.0000  2020.9416   2799.5950  2400.0000  2070.9244 
  2899.6916  2400.0000  2023.5593   2899.5607  2400.0000  2073.5421 
  2999.6573  2400.0000  2026.1769   2999.5264  2400.0000  2076.1598 
  3099.6231  2400.0000  2028.7946   3099.4922  2400.0000  2078.7775 
  3199.5888  2400.0000  2031.4123   3199.4579  2400.0000  2081.3952 
  3299.5545  2400.0000  2034.0300   3299.4236  2400.0000  2084.0129 
  3399.5203  2400.0000  2036.6477   3399.3894  2400.0000  2086.6306 
  3499.4860  2400.0000  2039.2654   3499.3551  2400.0000  2089.2483 
  3599.4517  2400.0000  2041.8831   3599.3208  2400.0000  2091.8660 
  3699.4175  2400.0000  2044.5008   3699.2866  2400.0000  2094.4837 
  3799.3832  2400.0000  2047.1185   3799.2523  2400.0000  2097.1014 
  3899.3489  2400.0000  2049.7362   3899.2180  2400.0000  2099.7191 
  3999.3146  2400.0000  2052.3539   3999.1838  2400.0000  2102.3368 
  2000.0000  2500.0000  2000.0000   1999.8691  2500.0000  2049.9829 
  2099.9657  2500.0000  2002.6177   2099.8348  2500.0000  2052.6006 
  2199.9315  2500.0000  2005.2354   2199.8006  2500.0000  2055.2183 
  2299.8972  2500.0000  2007.8531   2299.7663  2500.0000  2057.8360 
  2399.8629  2500.0000  2010.4708   2399.7320  2500.0000  2060.4536 
  2499.8287  2500.0000  2013.0885   2499.6978  2500.0000  2063.0713 
  2599.7944  2500.0000  2015.7062   2599.6635  2500.0000  2065.6890 
  2699.7601  2500.0000  2018.3239   2699.6292  2500.0000  2068.3067 
  2799.7259  2500.0000  2020.9416   2799.5950  2500.0000  2070.9244 
  2899.6916  2500.0000  2023.5593   2899.5607  2500.0000  2073.5421 
  2999.6573  2500.0000  2026.1769   2999.5264  2500.0000  2076.1598 
  3099.6231  2500.0000  2028.7946   3099.4922  2500.0000  2078.7775 
  3199.5888  2500.0000  2031.4123   3199.4579  2500.0000  2081.3952 
  3299.5545  2500.0000  2034.0300   3299.4236  2500.0000  2084.0129 
  3399.5203  2500.0000  2036.6477   3399.3894  2500.0000  2086.6306 
  3499.4860  2500.0000  2039.2654   3499.3551  2500.0000  2089.2483 
  3599.4517  2500.0000  2041.8831   3599.3208  2500.0000  2091.8660 
  3699.4175  2500.0000  2044.5008   3699.2866  2500.0000  2094.4837 
  3799.3832  2500.0000  2047.1185   3799.2523  2500.0000  2097.1014 
  3899.3489  2500.0000  2049.7362   3899.2180  2500.0000  2099.7191 
  3999.3146  2500.0000  2052.3539   3999.1838  2500.0000  2102.3368 
/ 

ZCORN
  2000.0000  2002.6177  2002.6177  2005.2354  2005.2354  2007.8531
  2007.8531  2010.4708  2010.4708  2013.0885  2013.0885  2015.7062
  2015.7062  2018.3239  2018.3239  2020.9416  2020.9416  2023.5593
  2023.5593  2026.1769  2026.1769  2028.7946  2028.7946  2031.4123
  2031.4123  2034.0300  2034.0300  2036.6477  2036.6477  2039.2654
  2039.2654  2041.8831  2041.8831  2044.5008  2044.5008  2047.1185
  2047.1185  2049.7362  2049.7362  2052.3539  2000.0000  2002.6177
  2002.6177  2005.2354  2005.2354  2007.8531  2007.8531  2010.4708
  2010.4708  2013.0885  2013.0885  2015.7062  2015.7062  2018.3239
  2018.3239  2020.9416  2020.9416  2023.5593  2023.5593  2026.1769
  2026.1769  2028.7946  2028.7946  2031.4123  2031.4123  2034.0300
  2034.0300  2036.6477  2036.6477  2039.2654  2039.2654  2041.8831
  2041.8831  2044.5008  2044.5008  2047.1185  2047.1185  2049.7362
  2049.7362  2052.3539  2000.0000  2002.6177  2002.6177  2005.2354
  2005.2354  2007.8531  2007.8531  2010.4708  2010.4708  2013.0885
  2013.0885  2015.7062  2015.7062  2018.3239  2018.3239  2020.9416
  2020.9416  2023.5593  2023.5593  2026.1769  2026.1769  2028.7946
  2028.7946  2031.4123  2031.4123  2034.0300  2034.0300  2036.6477
  2036.6477  2039.2654  2039.2654  2041.8831  2041.8831  2044.5008
  2044.5008  2047.1185  2047.1185  2049.7362  2049.7362  2052.3539
  2000.0000  2002.6177  2002.6177  2005.2354  2005.2354  2007.8531
  2007.8531  2010.4708  2010.4708  2013.0885  2013.0885  2015.7062
  2015.7062  2018.3239  2018.3239  2020.9416  2020.9416  2023.5593
  2023.5593  2026.1769  2026.1769  2028.7946  2028.7946  2031.4123
  2031.4123  2034.0300  2034.0300  2036.6477  2036.6477  2039.2654
  2039.2654  2041.8831  2041.8831  2044.5008  2044.5008  2047.1185
  2047.1185  2049.7362  2049.7362  2052.3539  2000.0000  2002.6177
  2002.6177  2005.2354  2005.2354  2007.8531  2007.8531  2010.4708
  2010.4708  2013.0885  2013.0885  2015.7062  2015.7062  2018.3239
  2018.3239  2020.9416  2020.9416  2023.5593  2023.5593  2026.1769
  2026.1769  2028.7946  2028.7946  2031.4123  2031.4123  2034.0300
  2034.0300  2036.6477  2036.6477  2039.2654  2039.2654  2041.8831
  2041.8831  2044.5008  2044.5008  2047.1185  2047.1185  2049.7362
  2049.7362  2052.3539  2000.0000  2002.6177  2002.6177  2005.2354
  2005.2354  2007.8531  2007.8531  2010.4708  2010.4708  2013.0885
  2013.0885  2015.7062  2015.7062  2018.3239  2018.3239  2020.9416
  2020.9416  2023.5593  2023.5593  2026.1769  2026.1769  2028.7946
  2028.7946  2031.4123  2031.4123  2034.0300  2034.0300  2036.6477
  2036.6477  2039.2654  2039.2654  2041.8831  2041.8831  2044.5008
  2044.5008  2047.1185  2047.1185  2049.7362  2049.7362  2052.3539
  2000.0000  2002.6177  2002.6177  2005.2354  2005.2354  2007.8531
  2007.8531  2010.4708  2010.4708  2013.0885  2013.0885  2015.7062
  2015.7062  2018.3239  2018.3239  2020.9416  2020.9416  2023.5593
  2023.5593  2026.1769  2026.1769  2028.7946  2028.7946  2031.4123
  2031.4123  2034.0300  2034.0300  2036.6477  2036.6477  2039.2654
  2039.2654  2041.8831  2041.8831  2044.5008  2044.5008  2047.1185
  2047.1185  2049.7362  2049.7362  2052.3539  2000.0000  2002.6177
  2002.6177  2005.2354  2005.2354  2007.8531  2007.8531  2010.4708
  2010.4708  2013.0885  2013.0885  2015.7062  2015.7062  2018.3239
  2018.3239  2020.9416  2020.9416  2023.5593  2023.5593  2026.1769
  2026.1769  2028.7946  2028.7946  2031.4123  2031.4123  2034.0300
  2034.0300  2036.6477  2036.6477  2039.2654  2039.2654  2041.8831
  2041.8831  2044.5008  2044.5008  2047.1185  2047.1185  2049.7362
  2049.7362  2052.3539  2000.0000  2002.6177  2002.6177  2005.2354
  2005.2354  2007.8531  2007.8531  2010.4708  2010.4708  2013.0885
  2013.0885  2015.7062  2015.7062  2018.3239  2018.3239  2020.9416
  2020.9416  2023.5593  2023.5593  2026.1769  2026.1769  2028.7946
  2028.7946  2031.4123  2031.4123  2034.0300  2034.0300  2036.6477
  2036.6477  2039.2654  2039.2654  2041.8831  2041.8831  2044.5008
  2044.5008  2047.1185  2047.1185  2049.7362  2049.7362  2052.3539
  2000.0000  2002.6177  2002.6177  2005.2354  2005.2354  2007.8531
  2007.8531  2010.4708  2010.4708  2013.0885  2013.0885  2015.7062
  2015.7062  2018.3239  2018.3239  2020.9416  2020.9416  2023.5593
  2023.5593  2026.1769  2026.1769  2028.7946  2028.7946  2031.4123
  2031.4123  2034.0300  2034.0300  2036.6477  2036.6477  2039.2654
  2039.2654  2041.8831  2041.8831  2044.5008  2044.5008  2047.1185
  2047.1185  2049.7362  2049.7362  2052.3539  2004.9983  2007.6160
  2007.6160  2010.2337  2010.2337  2012.8514  2012.8514  2015.4691
  2015.4691  2018.0868  2018.0868  2020.7045  2020.7045  2023.3222
  2023.3222  2025.9398  2025.9398  2028.5575  2028.5575  2031.1752
  2031.1752  2033.7929  2033.7929  2036.4106  2036.4106  2039.0283
  2039.0283  2041.6460  2041.6460  2044.2637  2044.2637  2046.8814
  2046.8814  2049.4991  2049.4991  2052.1168  2052.1168  2054.7345
  2054.7345  2057.3522  2004.9983  2007.6160  2007.6160  2010.2337
  2010.2337  2012.8514  2012.8514  2015.4691  2015.4691  2018.0868
  2018.0868  2020.7045  2020.7045  2023.3222  2023.3222  2025.9398
  2025.9398  2028.5575  2028.5575  2031.1752  2031.1752  2033.7929
  2033.7929  2036.4106  2036.4106  2039.0283  2039.0283  2041.6460
  2041.6460  2044.2637  2044.2637  2046.8814  2046.8814  2049.4991
  2049.4991  2052.1168  2052.1168  2054.7345  2054.7345  2057.3522
  2004.9983  2007.6160  2007.6160  2010.2337  2010.2337  2012.8514
  2012.8514  2015.4691  2015.4691  2018.0868  2018.0868  2020.7045
  2020.7045  2023.3222  2023.3222  2025.9398  2025.9398  2028.5575
  2028.5575  2031.1752  2031.1752  2033.7929  2033.7929  2036.4106
  2036.4106  2039.0283  2039.0283  2041.6460  2041.6460  2044.2637
  2044.2637  2046.8814  2046.8814  2049.4991  2049.4991  2052.1168
  2052.1168  2054.7345  2054.7345  2057.3522  2004.9983  2007.6160
  2007.6160  2010.2337  2010.2337  2012.8514  2012.8514  2015.4691
  2015.4691  2018.0868  2018.0868  2020.7045  2020.7045  2023.3222
  2023.3222  2025.9398  2025.9398  2028.5575  2028.5575  2031.1752
  2031.1752  2033.7929  2033.7929  2036.4106  2036.4106  2039.0283
  2039.0283  2041.6460  2041.6460  2044.2637  2044.2637  2046.8814
  2046.8814  2049.4991  2049.4991  2052.1168  2052.1168  2054.7345
  2054.7345  2057.3522  2004.9983  2007.6160  2007.6160  2010.2337
  2010.2337  2012.8514  2012.8514  2015.4691  2015.4691  2018.0868
  2018.0868  2020.7045  2020.7045  2023.3222  2023.3222  2025.9398
  2025.9398  2028.5575  2028.5575  2031.1752  2031.1752  2033.7929
  2033.7929  2036.4106  2036.4106  2039.0283  2039.0283  2041.6460
  2041.6460  2044.2637  2044.2637  2046.8814  2046.8814  2049.4991
  2049.4991  2052.1168  2052.1168  2054.7345  2054.7345  2057.3522
  2004.9983  2007.6160  2007.6160  2010.2337  2010.2337  2012.8514
  2012.8514  2015.4691  2015.4691  2018.0868  2018.0868  2020.7045
  2020.7045  2023.3222  2023.3222  2025.9398  2025.9398  2028.5575
  2028.5575  2031.1752  2031.1752  2033.7929  2033.7929  2036.4106
  2036.4106  2039.0283  2039.0283  2041.6460  2041.6460  2044.2637
  2044.2637  2046.8814  2046.8814  2049.4991  2049.4991  2052.1168
  2052.1168  2054.7345  2054.7345  2057.3522  2004.9983  2007.6160
  2007.6160  2010.2337  2010.2337  2012.8514  2012.8514  2015.4691
  2015.4691  2018.0868  2018.0868  2020.7045  2020.7045  2023.3222
  2023.3222  2025.9398  2025.9398  2028.5575  2028.5575  2031.1752
  2031.1752  2033.7929  2033.7929  2036.4106  2036.4106  2039.0283
  2039.0283  2041.6460  2041.6460  2044.2637  2044.2637  2046.8814
  2046.8814  2049.4991  2049.4991  2052.1168  2052.1168  2054.7345
  2054.7345  2057.3522  2004.9983  2007.6160  2007.6160  2010.2337
  2010.2337  2012.8514  2012.8514  2015.4691  2015.4691  2018.0868
  2018.0868  2020.7045  2020.7045  2023.3222  2023.3222  2025.9398
  2025.9398  2028.5575  2028.5575  2031.1752  2031.1752  2033.7929
  2033.7929  2036.4106  2036.4106  2039.0283  2039.0283  2041.6460
  2041.6460  2044.2637  2044.2637  2046.8814  2046.8814  2049.4991
  2049.4991  2052.1168  2052.1168  2054.7345  2054.7345  2057.3522
  2004.9983  2007.6160  2007.6160  2010.2337  2010.2337  2012.8514
  2012.8514  2015.4691  2015.4691  2018.0868  2018.0868  2020.7045
  2020.7045  2023.3222  2023.3222  2025.9398  2025.9398  2028.5575
  2028.5575  2031.1752  2031.1752  2033.7929  2033.7929  2036.4106
  2036.4106  2039.0283  2039.0283  2041.6460  2041.6460  2044.2637
  2044.2637  2046.8814  2046.8814  2049.4991  2049.4991  2052.1168
  2052.1168  2054.7345  2054.7345  2057.3522  2004.9983  2007.6160
  2007.6160  2010.2337  2010.2337  2012.8514  2012.8514  2015.4691
  2015.4691  2018.0868  2018.0868  2020.7045  2020.7045  2023.3222
  2023.3222  2025.9398  2025.9398  2028.5575  2028.5575  2031.1752
  2031.1752  2033.7929  2033.7929  2036.4106  2036.4106  2039.0283
  2039.0283  2041.6460  2041.6460  2044.2637  2044.2637  2046.8814
  2046.8814  2049.4991  2049.4991  2052.1168  2052.1168  2054.7345
  2054.7345  2057.3522  2004.9983  2007.6160  2007.6160  2010.2337
  2010.2337  2012.8514  2012.8514  2015.4691  2015.4691  2018.0868
  2018.0868  2020.7045  2020.7045  2023.3222  2023.3222  2025.9398
  2025.9398  2028.5575  2028.5575  2031.1752  2031.1752  2033.7929
  2033.7929  2036.4106  2036.4106  2039.0283  2039.0283  2041.6460
  2041.6460  2044.2637  2044.2637  2046.8814  2046.8814  2049.4991
  2049.4991  2052.1168  2052.1168  2054.7345  2054.7345  2057.3522
  2004.9983  2007.6160  2007.6160  2010.2337  2010.2337  2012.8514
  2012.8514  2015.4691  2015.4691  2018.0868  2018.0868  2020.7045
  2020.7045  2023.3222  2023.3222  2025.9398  2025.9398  2028.5575
  2028.5575  2031.1752  2031.1752  2033.7929  2033.7929  2036.4106
  2036.4106  2039.0283  2039.0283  2041.6460  2041.6460  2044.2637
  2044.2637  2046.8814  2046.8814  2049.4991  2049.4991  2052.1168
  2052.1168  2054.7345  2054.7345  2057.3522  2004.9983  2007.6160
  2007.6160  2010.2337  2010.2337  2012.8514  2012.8514  2015.4691
  2015.4691  2018.0868  2018.0868  2020.7045  2020.7045  2023.3222
  2023.3222  2025.9398  2025.9398  2028.5575  2028.5575  2031.1752
  2031.1752  2033.7929  2033.7929  2036.4106  2036.4106  2039.0283
  2039.0283  2041.6460  2041.6460  2044.2637  2044.2637  2046.8814
  2046.8814  2049.4991  2049.4991  2052.1168  2052.1168  2054.7345
  2054.7345  2057.3522  2004.9983  2007.6160  2007.6160  2010.2337
  2010.2337  2012.8514  2012.8514  2015.4691  2015.4691  2018.0868
  2018.0868  2020.7045  2020.7045  2023.3222  2023.3222  2025.9398
  2025.9398  2028.5575  2028.5575  2031.1752  2031.1752  2033.7929
  2033.7929  2036.4106  2036.4106  2039.0283  2039.0283  2041.6460
  2041.6460  2044.2637  2044.2637  2046.8814  2046.8814  2049.4991
  2049.4991  2052.1168  2052.1168  2054.7345  2054.7345  2057.3522
  2004.9983  2007.6160  2007.6160  2010.2337  2010.2337  2012.8514
  2012.8514  2015.4691  2015.4691  2018.0868  2018.0868  2020.7045
  2020.7045  2023.3222  2023.3222  2025.9398  2025.9398  2028.5575
  2028.5575  2031.1752  2031.1752  2033.7929  2033.7929  2036.4106
  2036.4106  2039.0283  2039.0283  2041.6460  2041.6460  2044.2637
  2044.2637  2046.8814  2046.8814  2049.4991  2049.4991  2052.1168
  2052.1168  2054.7345  2054.7345  2057.3522  2004.9983  2007.6160
  2007.6160  2010.2337  2010.2337  2012.8514  2012.8514  2015.4691
  2015.4691  2018.0868  2018.0868  2020.7045  2020.7045  2023.3222
  2023.3222  2025.9398  2025.9398  2028.5575  2028.5575  2031.1752
  2031.1752  2033.7929  2033.7929  2036.4106  2036.4106  2039.0283
  2039.0283  2041.6460  2041.6460  2044.2637  2044.2637  2046.8814
  2046.8814  2049.4991  2049.4991  2052.1168  2052.1168  2054.7345
  2054.7345  2057.3522  2004.9983  2007.6160  2007.6160  2010.2337
  2010.2337  2012.8514  2012.8514  2015.4691  2015.4691  2018.0868
  2018.0868  2020.7045  2020.7045  2023.3222  2023.3222  2025.9398
  2025.9398  2028.5575  2028.5575  2031.1752  2031.1752  2033.7929
  2033.7929  2036.4106  2036.4106  2039.0283  2039.0283  2041.6460
  2041.6460  2044.2637  2044.2637  2046.8814  2046.8814  2049.4991
  2049.4991  2052.1168  2052.1168  2054.7345  2054.7345  2057.3522
  2004.9983  2007.6160  2007.6160  2010.2337  2010.2337  2012.8514
  2012.8514  2015.4691  2015.4691  2018.0868  2018.0868  2020.7045
  2020.7045  2023.3222  2023.3222  2025.9398  2025.9398  2028.5575
  2028.5575  2031.1752  2031.1752  2033.7929  2033.7929  2036.4106
  2036.4106  2039.0283  2039.0283  2041.6460  2041.6460  2044.2637
  2044.2637  2046.8814  2046.8814  2049.4991  2049.4991  2052.1168
  2052.1168  2054.7345  2054.7345  2057.3522  2004.9983  2007.6160
  2007.6160  2010.2337  2010.2337  2012.8514  2012.8514  2015.4691
  2015.4691  2018.0868  2018.0868  2020.7045  2020.7045  2023.3222
  2023.3222  2025.9398  2025.9398  2028.5575  2028.5575  2031.1752
  2031.1752  2033.7929  2033.7929  2036.4106  2036.4106  2039.0283
  2039.0283  2041.6460  2041.6460  2044.2637  2044.2637  2046.8814
  2046.8814  2049.4991  2049.4991  2052.1168  2052.1168  2054.7345
  2054.7345  2057.3522  2004.9983  2007.6160  2007.6160  2010.2337
  2010.2337  2012.8514  2012.8514  2015.4691  2015.4691  2018.0868
  2018.0868  2020.7045  2020.7045  2023.3222  2023.3222  2025.9398
  2025.9398  2028.5575  2028.5575  2031.1752  2031.1752  2033.7929
  2033.7929  2036.4106  2036.4106  2039.0283  2039.0283  2041.6460
  2041.6460  2044.2637  2044.2637  2046.8814  2046.8814  2049.4991
  2049.4991  2052.1168  2052.1168  2054.7345  2054.7345  2057.3522
  2009.9966  2012.6143  2012.6143  2015.2320  2015.2320  2017.8497
  2017.8497  2020.4674  2020.4674  2023.0850  2023.0850  2025.7027
  2025.7027  2028.3204  2028.3204  2030.9381  2030.9381  2033.5558
  2033.5558  2036.1735  2036.1735  2038.7912  2038.7912  2041.4089
  2041.4089  2044.0266  2044.0266  2046.6443  2046.6443  2049.2620
  2049.2620  2051.8797  2051.8797  2054.4974  2054.4974  2057.1151
  2057.1151  2059.7328  2059.7328  2062.3505  2009.9966  2012.6143
  2012.6143  2015.2320  2015.2320  2017.8497  2017.8497  2020.4674
  2020.4674  2023.0850  2023.0850  2025.7027  2025.7027  2028.3204
  2028.3204  2030.9381  2030.9381  2033.5558  2033.5558  2036.1735
  2036.1735  2038.7912  2038.7912  2041.4089  2041.4089  2044.0266
  2044.0266  2046.6443  2046.6443  2049.2620  2049.2620  2051.8797
  2051.8797  2054.4974  2054.4974  2057.1151  2057.1151  2059.7328
  2059.7328  2062.3505  2009.9966  2012.6143  2012.6143  2015.2320
  2015.2320  2017.8497  2017.8497  2020.4674  2020.4674  2023.0850
  2023.0850  2025.7027  2025.7027  2028.3204  2028.3204  2030.9381
  2030.9381  2033.5558  2033.5558  2036.1735  2036.1735  2038.7912
  2038.7912  2041.4089  2041.4089  2044.0266  2044.0266  2046.6443
  2046.6443  2049.2620  2049.2620  2051.8797  2051.8797  2054.4974
  2054.4974  2057.1151  2057.1151  2059.7328  2059.7328  2062.3505
  2009.9966  2012.6143  2012.6143  2015.2320  2015.2320  2017.8497
  2017.8497  2020.4674  2020.4674  2023.0850  2023.0850  2025.7027
  2025.7027  2028.3204  2028.3204  2030.9381  2030.9381  2033.5558
  2033.5558  2036.1735  2036.1735  2038.7912  2038.7912  2041.4089
  2041.4089  2044.0266  2044.0266  2046.6443  2046.6443  2049.2620
  2049.2620  2051.8797  2051.8797  2054.4974  2054.4974  2057.1151
  2057.1151  2059.7328  2059.7328  2062.3505  2009.9966  2012.6143
  2012.6143  2015.2320  2015.2320  2017.8497  2017.8497  2020.4674
  2020.4674  2023.0850  2023.0850  2025.7027  2025.7027  2028.3204
  2028.3204  2030.9381  2030.9381  2033.5558  2033.5558  2036.1735
  2036.1735  2038.7912  2038.7912  2041.4089  2041.4089  2044.0266
  2044.0266  2046.6443  2046.6443  2049.2620  2049.2620  2051.8797
  2051.8797  2054.4974  2054.4974  2057.1151  2057.1151  2059.7328
  2059.7328  2062.3505  2009.9966  2012.6143  2012.6143  2015.2320
  2015.2320  2017.8497  2017.8497  2020.4674  2020.4674  2023.0850
  2023.0850  2025.7027  2025.7027  2028.3204  2028.3204  2030.9381
  2030.9381  2033.5558  2033.5558  2036.1735  2036.1735  2038.7912
  2038.7912  2041.4089  2041.4089  2044.0266  2044.0266  2046.6443
  2046.6443  2049.2620  2049.2620  2051.8797  2051.8797  2054.4974
  2054.4974  2057.1151  2057.1151  2059.7328  2059.7328  2062.3505
  2009.9966  2012.6143  2012.6143  2015.2320  2015.2320  2017.8497
  2017.8497  2020.4674  2020.4674  2023.0850  2023.0850  2025.7027
  2025.7027  2028.3204  2028.3204  2030.9381  2030.9381  2033.5558
  2033.5558  2036.1735  2036.1735  2038.7912  2038.7912  2041.4089
  2041.4089  2044.0266  2044.0266  2046.6443  2046.6443  2049.2620
  2049.2620  2051.8797  2051.8797  2054.4974  2054.4974  2057.1151
  2057.1151  2059.7328  2059.7328  2062.3505  2009.9966  2012.6143
  2012.6143  2015.2320  2015.2320  2017.8497  2017.8497  2020.4674
  2020.4674  2023.0850  2023.0850  2025.7027  2025.7027  2028.3204
  2028.3204  2030.9381  2030.9381  2033.5558  2033.5558  2036.1735
  2036.1735  2038.7912  2038.7912  2041.4089  2041.4089  2044.0266
  2044.0266  2046.6443  2046.6443  2049.2620  2049.2620  2051.8797
  2051.8797  2054.4974  2054.4974  2057.1151  2057.1151  2059.7328
  2059.7328  2062.3505  2009.9966  2012.6143  2012.6143  2015.2320
  2015.2320  2017.8497  2017.8497  2020.4674  2020.4674  2023.0850
  2023.0850  2025.7027  2025.7027  2028.3204  2028.3204  2030.9381
  2030.9381  2033.5558  2033.5558  2036.1735  2036.1735  2038.7912
  2038.7912  2041.4089  2041.4089  2044.0266  2044.0266  2046.6443
  2046.6443  2049.2620  2049.2620  2051.8797  2051.8797  2054.4974
  2054.4974  2057.1151  2057.1151  2059.7328  2059.7328  2062.3505
  2009.9966  2012.6143  2012.6143  2015.2320  2015.2320  2017.8497
  2017.8497  2020.4674  2020.4674  2023.0850  2023.0850  2025.7027
  2025.7027  2028.3204  2028.3204  2030.9381  2030.9381  2033.5558
  2033.5558  2036.1735  2036.1735  2038.7912  2038.7912  2041.4089
  2041.4089  2044.0266  2044.0266  2046.6443  2046.6443  2049.2620
  2049.2620  2051.8797  2051.8797  2054.4974  2054.4974  2057.1151
  2057.1151  2059.7328  2059.7328  2062.3505  2009.9966  2012.6143
  2012.6143  2015.2320  2015.2320  2017.8497  2017.8497  2020.4674
  2020.4674  2023.0850  2023.0850  2025.7027  2025.7027  2028.3204
  2028.3204  2030.9381  2030.9381  2033.5558  2033.5558  2036.1735
  2036.1735  2038.7912  2038.7912  2041.4089  2041.4089  2044.0266
  2044.0266  2046.6443  2046.6443  2049.2620  2049.2620  2051.8797
  2051.8797  2054.4974  2054.4974  2057.1151  2057.1151  2059.7328
  2059.7328  2062.3505  2009.9966  2012.6143  2012.6143  2015.2320
  2015.2320  2017.8497  2017.8497  2020.4674  2020.4674  2023.0850
  2023.0850  2025.7027  2025.7027  2028.3204  2028.3204  2030.9381
  2030.9381  2033.5558  2033.5558  2036.1735  2036.1735  2038.7912
  2038.7912  2041.4089  2041.4089  2044.0266  2044.0266  2046.6443
  2046.6443  2049.2620  2049.2620  2051.8797  2051.8797  2054.4974
  2054.4974  2057.1151  2057.1151  2059.7328  2059.7328  2062.3505
  2009.9966  2012.6143  2012.6143  2015.2320  2015.2320  2017.8497
  2017.8497  2020.4674  2020.4674  2023.0850  2023.0850  2025.7027
  2025.7027  2028.3204  2028.3204  2030.9381  2030.9381  2033.5558
  2033.5558  2036.1735  2036.1735  2038.7912  2038.7912  2041.4089
  2041.4089  2044.0266  2044.0266  2046.6443  2046.6443  2049.2620
  2049.2620  2051.8797  2051.8797  2054.4974  2054.4974  2057.1151
  2057.1151  2059.7328  2059.7328  2062.3505  2009.9966  2012.6143
  2012.6143  2015.2320  2015.2320  2017.8497  2017.8497  2020.4674
  2020.4674  2023.0850  2023.0850  2025.7027  2025.7027  2028.3204
  2028.3204  2030.9381  2030.9381  2033.5558  2033.5558  2036.1735
  2036.1735  2038.7912  2038.7912  2041.4089  2041.4089  2044.0266
  2044.0266  2046.6443  2046.6443  2049.2620  2049.2620  2051.8797
  2051.8797  2054.4974  2054.4974  2057.1151  2057.1151  2059.7328
  2059.7328  2062.3505  2009.9966  2012.6143  2012.6143  2015.2320
  2015.2320  2017.8497  2017.8497  2020.4674  2020.4674  2023.0850
  2023.0850  2025.7027  2025.7027  2028.3204  2028.3204  2030.9381
  2030.9381  2033.5558  2033.5558  2036.1735  2036.1735  2038.7912
  2038.7912  2041.4089  2041.4089  2044.0266  2044.0266  2046.6443
  2046.6443  2049.2620  2049.2620  2051.8797  2051.8797  2054.4974
  2054.4974  2057.1151  2057.1151  2059.7328  2059.7328  2062.3505
  2009.9966  2012.6143  2012.6143  2015.2320  2015.2320  2017.8497
  2017.8497  2020.4674  2020.4674  2023.0850  2023.0850  2025.7027
  2025.7027  2028.3204  2028.3204  2030.9381  2030.9381  2033.5558
  2033.5558  2036.1735  2036.1735  2038.7912  2038.7912  2041.4089
  2041.4089  2044.0266  2044.0266  2046.6443  2046.6443  2049.2620
  2049.2620  2051.8797  2051.8797  2054.4974  2054.4974  2057.1151
  2057.1151  2059.7328  2059.7328  2062.3505  2009.9966  2012.6143
  2012.6143  2015.2320  2015.2320  2017.8497  2017.8497  2020.4674
  2020.4674  2023.0850  2023.0850  2025.7027  2025.7027  2028.3204
  2028.3204  2030.9381  2030.9381  2033.5558  2033.5558  2036.1735
  2036.1735  2038.7912  2038.7912  2041.4089  2041.4089  2044.0266