-- This reservoir simulation deck is made available under the Open Database
-- License: http://opendatacommons.org/licenses/odbl/1.0/. Any rights in
-- individual contents of the database are licensed under the Database Contents
-- License: http://opendatacommons.org/licenses/dbcl/1.0/

-- Copyright (C) 2023 Equinor


SPECGRID
 13 4 5 1 F / 

COORD
  2000.0000  2000.0000  1987.0000   1999.9215  2000.0000  2004.4973 
  2099.9848  2000.0000  1988.7452   2099.9062  2000.0000  2006.2426 
  2199.9695  2000.0000  1990.4905   2199.8910  2000.0000  2007.9878 
  2299.9543  2000.0000  1992.2357   2299.8758  2000.0000  2009.7331 
  2399.9391  2000.0000  2006.9810   2399.8605  2000.0000  2024.4783 
  2499.9238  2000.0000  2008.7262   2499.8453  2000.0000  2026.2235 
  2599.9086  2000.0000  2010.4714   2599.8301  2000.0000  2027.9688 
  2699.8934  2000.0000  2012.2167   2699.8149  2000.0000  2029.7140 
  2799.8782  2000.0000  2013.9619   2799.7996  2000.0000  2031.4593 
  2899.8629  2000.0000  2015.7072   2899.7844  2000.0000  2033.2045 
  2999.8477  2000.0000  2017.4524   2999.7692  2000.0000  2034.9497 
  3099.8325  2000.0000  2019.1976   3099.7539  2000.0000  2036.6950 
  3199.8172  2000.0000  2020.9429   3199.7387  2000.0000  2038.4402 
  3299.8020  2000.0000  2022.6881   3299.7235  2000.0000  2040.1855 
  2000.0000  2100.0000  1987.0000   1999.9215  2100.0000  2004.4973 
  2099.9848  2100.0000  1988.7452   2099.9062  2100.0000  2006.2426 
  2199.9695  2100.0000  1990.4905   2199.8910  2100.0000  2007.9878 
  2299.9543  2100.0000  1992.2357   2299.8758  2100.0000  2009.7331 
  2399.9391  2100.0000  2006.9810   2399.8605  2100.0000  2024.4783 
  2499.9238  2100.0000  2008.7262   2499.8453  2100.0000  2026.2235 
  2599.9086  2100.0000  2010.4714   2599.8301  2100.0000  2027.9688 
  2699.8934  2100.0000  2012.2167   2699.8149  2100.0000  2029.7140 
  2799.8782  2100.0000  2013.9619   2799.7996  2100.0000  2031.4593 
  2899.8629  2100.0000  2015.7072   2899.7844  2100.0000  2033.2045 
  2999.8477  2100.0000  2017.4524   2999.7692  2100.0000  2034.9497 
  3099.8325  2100.0000  2019.1976   3099.7539  2100.0000  2036.6950 
  3199.8172  2100.0000  2020.9429   3199.7387  2100.0000  2038.4402 
  3299.8020  2100.0000  2022.6881   3299.7235  2100.0000  2040.1855 
  2000.0000  2200.0000  1987.0000   1999.9215  2200.0000  2004.4973 
  2099.9848  2200.0000  1988.7452   2099.9062  2200.0000  2006.2426 
  2199.9695  2200.0000  1990.4905   2199.8910  2200.0000  2007.9878 
  2299.9543  2200.0000  1992.2357   2299.8758  2200.0000  2009.7331 
  2399.9391  2200.0000  2006.9810   2399.8605  2200.0000  2024.4783 
  2499.9238  2200.0000  2008.7262   2499.8453  2200.0000  2026.2235 
  2599.9086  2200.0000  2010.4714   2599.8301  2200.0000  2027.9688 
  2699.8934  2200.0000  2012.2167   2699.8149  2200.0000  2029.7140 
  2799.8782  2200.0000  2013.9619   2799.7996  2200.0000  2031.4593 
  2899.8629  2200.0000  2015.7072   2899.7844  2200.0000  2033.2045 
  2999.8477  2200.0000  2017.4524   2999.7692  2200.0000  2034.9497 
  3099.8325  2200.0000  2019.1976   3099.7539  2200.0000  2036.6950 
  3199.8172  2200.0000  2020.9429   3199.7387  2200.0000  2038.4402 
  3299.8020  2200.0000  2022.6881   3299.7235  2200.0000  2040.1855 
  2000.0000  2300.0000  1987.0000   1999.9215  2300.0000  2004.4973 
  2099.9848  2300.0000  1988.7452   2099.9062  2300.0000  2006.2426 
  2199.9695  2300.0000  1990.4905   2199.8910  2300.0000  2007.9878 
  2299.9543  2300.0000  1992.2357   2299.8758  2300.0000  2009.7331 
  2399.9391  2300.0000  2006.9810   2399.8605  2300.0000  2024.4783 
  2499.9238  2300.0000  2008.7262   2499.8453  2300.0000  2026.2235 
  2599.9086  2300.0000  2010.4714   2599.8301  2300.0000  2027.9688 
  2699.8934  2300.0000  2012.2167   2699.8149  2300.0000  2029.7140 
  2799.8782  2300.0000  2013.9619   2799.7996  2300.0000  2031.4593 
  2899.8629  2300.0000  2015.7072   2899.7844  2300.0000  2033.2045 
  2999.8477  2300.0000  2017.4524   2999.7692  2300.0000  2034.9497 
  3099.8325  2300.0000  2019.1976   3099.7539  2300.0000  2036.6950 
  3199.8172  2300.0000  2020.9429   3199.7387  2300.0000  2038.4402 
  3299.8020  2300.0000  2022.6881   3299.7235  2300.0000  2040.1855 
  2000.0000  2400.0000  1987.0000   1999.9215  2400.0000  2004.4973 
  2099.9848  2400.0000  1988.7452   2099.9062  2400.0000  2006.2426 
  2199.9695  2400.0000  1990.4905   2199.8910  2400.0000  2007.9878 
  2299.9543  2400.0000  1992.2357   2299.8758  2400.0000  2009.7331 
  2399.9391  2400.0000  2006.9810   2399.8605  2400.0000  2024.4783 
  2499.9238  2400.0000  2008.7262   2499.8453  2400.0000  2026.2235 
  2599.9086  2400.0000  2010.4714   2599.8301  2400.0000  2027.9688 
  2699.8934  2400.0000  2012.2167   2699.8149  2400.0000  2029.7140 
  2799.8782  2400.0000  2013.9619   2799.7996  2400.0000  2031.4593 
  2899.8629  2400.0000  2015.7072   2899.7844  2400.0000  2033.2045 
  2999.8477  2400.0000  2017.4524   2999.7692  2400.0000  2034.9497 
  3099.8325  2400.0000  2019.1976   3099.7539  2400.0000  2036.6950 
  3199.8172  2400.0000  2020.9429   3199.7387  2400.0000  2038.4402 
  3299.8020  2400.0000  2022.6881   3299.7235  2400.0000  2040.1855 
/ 

ZCORN
  1987.0000  1988.7452  1988.7452  1990.4905  1990.4905  1992.2357
  1992.2357  1993.9810  2006.9810  2008.7262  2008.7262  2010.4714
  2010.4714  2012.2167  2012.2167  2013.9619  2013.9619  2015.7072
  2015.7072  2017.4524  2017.4524  2019.1976  2019.1976  2020.9429
  2020.9429  2022.6881  1987.0000  1988.7452  1988.7452  1990.4905
  1990.4905  1992.2357  1992.2357  1993.9810  2006.9810  2008.7262
  2008.7262  2010.4714  2010.4714  2012.2167  2012.2167  2013.9619
  2013.9619  2015.7072  2015.7072  2017.4524  2017.4524  2019.1976
  2019.1976  2020.9429  2020.9429  2022.6881  1987.0000  1988.7452
  1988.7452  1990.4905  1990.4905  1992.2357  1992.2357  1993.9810
  2006.9810  2008.7262  2008.7262  2010.4714  2010.4714  2012.2167
  2012.2167  2013.9619  2013.9619  2015.7072  2015.7072  2017.4524
  2017.4524  2019.1976  2019.1976  2020.9429  2020.9429  2022.6881
  1987.0000  1988.7452  1988.7452  1990.4905  1990.4905  1992.2357
  1992.2357  1993.9810  2006.9810  2008.7262  2008.7262  2010.4714
  2010.4714  2012.2167  2012.2167  2013.9619  2013.9619  2015.7072
  2015.7072  2017.4524  2017.4524  2019.1976  2019.1976  2020.9429
  2020.9429  2022.6881  1987.0000  1988.7452  1988.7452  1990.4905
  1990.4905  1992.2357  1992.2357  1993.9810  2006.9810  2008.7262
  2008.7262  2010.4714  2010.4714  2012.2167  2012.2167  2013.9619
  2013.9619  2015.7072  2015.7072  2017.4524  2017.4524  2019.1976
  2019.1976  2020.9429  2020.9429  2022.6881  1987.0000  1988.7452
  1988.7452  1990.4905  1990.4905  1992.2357  1992.2357  1993.9810
  2006.9810  2008.7262  2008.7262  2010.4714  2010.4714  2012.2167
  2012.2167  2013.9619  2013.9619  2015.7072  2015.7072  2017.4524
  2017.4524  2019.1976  2019.1976  2020.9429  2020.9429  2022.6881
  1987.0000  1988.7452  1988.7452  1990.4905  1990.4905  1992.2357
  1992.2357  1993.9810  2006.9810  2008.7262  2008.7262  2010.4714
  2010.4714  2012.2167  2012.2167  2013.9619  2013.9619  2015.7072
  2015.7072  2017.4524  2017.4524  2019.1976  2019.1976  2020.9429
  2020.9429  2022.6881  1987.0000  1988.7452  1988.7452  1990.4905
  1990.4905  1992.2357  1992.2357  1993.9810  2006.9810  2008.7262
  2008.7262  2010.4714  2010.4714  2012.2167  2012.2167  2013.9619
  2013.9619  2015.7072  2015.7072  2017.4524  2017.4524  2019.1976
  2019.1976  2020.9429  2020.9429  2022.6881  1989.4996  1991.2449
  1991.2449  1992.9901  1992.9901  1994.7353  1994.7353  1996.4806
  2009.4806  2011.2258  2011.2258  2012.9711  2012.9711  2014.7163
  2014.7163  2016.4615  2016.4615  2018.2068  2018.2068  2019.9520
  2019.9520  2021.6973  2021.6973  2023.4425  2023.4425  2025.1877
  1989.4996  1991.2449  1991.2449  1992.9901  1992.9901  1994.7353
  1994.7353  1996.4806  2009.4806  2011.2258  2011.2258  2012.9711
  2012.9711  2014.7163  2014.7163  2016.4615  2016.4615  2018.2068
  2018.2068  2019.9520  2019.9520  2021.6973  2021.6973  2023.4425
  2023.4425  2025.1877  1989.4996  1991.2449  1991.2449  1992.9901
  1992.9901  1994.7353  1994.7353  1996.4806  2009.4806  2011.2258
  2011.2258  2012.9711  2012.9711  2014.7163  2014.7163  2016.4615
  2016.4615  2018.2068  2018.2068  2019.9520  2019.9520  2021.6973
  2021.6973  2023.4425  2023.4425  2025.1877  1989.4996  1991.2449
  1991.2449  1992.9901  1992.9901  1994.7353  1994.7353  1996.4806
  2009.4806  2011.2258  2011.2258  2012.9711  2012.9711  2014.7163
  2014.7163  2016.4615  2016.4615  2018.2068  2018.2068  2019.9520
  2019.9520  2021.6973  2021.6973  2023.4425  2023.4425  2025.1877
  1989.4996  1991.2449  1991.2449  1992.9901  1992.9901  1994.7353
  1994.7353  1996.4806  2009.4806  2011.2258  2011.2258  2012.9711
  2012.9711  2014.7163  2014.7163  2016.4615  2016.4615  2018.2068
  2018.2068  2019.9520  2019.9520  2021.6973  2021.6973  2023.4425
  2023.4425  2025.1877  1989.4996  1991.2449  1991.2449  1992.9901
  1992.9901  1994.7353  1994.7353  1996.4806  2009.4806  2011.2258
  2011.2258  2012.9711  2012.9711  2014.7163  2014.7163  2016.4615
  2016.4615  2018.2068  2018.2068  2019.9520  2019.9520  2021.6973
  2021.6973  2023.4425  2023.4425  2025.1877  1989.4996  1991.2449
  1991.2449  1992.9901  1992.9901  1994.7353  1994.7353  1996.4806
  2009.4806  2011.2258  2011.2258  2012.9711  2012.9711  2014.7163
  2014.7163  2016.4615  2016.4615  2018.2068  2018.2068  2019.9520
  2019.9520  2021.6973  2021.6973  2023.4425  2023.4425  2025.1877
  1989.4996  1991.2449  1991.2449  1992.9901  1992.9901  1994.7353
  1994.7353  1996.4806  2009.4806  2011.2258  2011.2258  2012.9711
  2012.9711  2014.7163  2014.7163  2016.4615  2016.4615  2018.2068
  2018.2068  2019.9520  2019.9520  2021.6973  2021.6973  2023.4425
  2023.4425  2025.1877  1989.4996  1991.2449  1991.2449  1992.9901
  1992.9901  1994.7353  1994.7353  1996.4806  2009.4806  2011.2258
  2011.2258  2012.9711  2012.9711  2014.7163  2014.7163  2016.4615
  2016.4615  2018.2068  2018.2068  2019.9520  2019.9520  2021.6973
  2021.6973  2023.4425  2023.4425  2025.1877  1989.4996  1991.2449
  1991.2449  1992.9901  1992.9901  1994.7353  1994.7353  1996.4806
  2009.4806  2011.2258  2011.2258  2012.9711  2012.9711  2014.7163
  2014.7163  2016.4615  2016.4615  2018.2068  2018.2068  2019.9520
  2019.9520  2021.6973  2021.6973  2023.4425  2023.4425  2025.1877
  1989.4996  1991.2449  1991.2449  1992.9901  1992.9901  1994.7353
  1994.7353  1996.4806  2009.4806  2011.2258  2011.2258  2012.9711
  2012.9711  2014.7163  2014.7163  2016.4615  2016.4615  2018.2068
  2018.2068  2019.9520  2019.9520  2021.6973  2021.6973  2023.4425
  2023.4425  2025.1877  1989.4996  1991.2449  1991.2449  1992.9901
  1992.9901  1994.7353  1994.7353  1996.4806  2009.4806  2011.2258
  2011.2258  2012.9711  2012.9711  2014.7163  2014.7163  2016.4615
  2016.4615  2018.2068  2018.2068  2019.9520  2019.9520  2021.6973
  2021.6973  2023.4425  2023.4425  2025.1877  1989.4996  1991.2449
  1991.2449  1992.9901  1992.9901  1994.7353  1994.7353  1996.4806
  2009.4806  2011.2258  2011.2258  2012.9711  2012.9711  2014.7163
  2014.7163  2016.4615  2016.4615  2018.2068  2018.2068  2019.9520
  2019.9520  2021.6973  2021.6973  2023.4425  2023.4425  2025.1877
  1989.4996  1991.2449  1991.2449  1992.9901  1992.9901  1994.7353
  1994.7353  1996.4806  2009.4806  2011.2258  2011.2258  2012.9711
  2012.9711  2014.7163  2014.7163  2016.4615  2016.4615  2018.2068
  2018.2068  2019.9520  2019.9520  2021.6973  2021.6973  2023.4425
  2023.4425  2025.1877  1989.4996  1991.2449  1991.2449  1992.9901
  1992.9901  1994.7353  1994.7353  1996.4806  2009.4806  2011.2258
  2011.2258  2012.9711  2012.9711  2014.7163  2014.7163  2016.4615
  2016.4615  2018.2068  2018.2068  2019.9520  2019.9520  2021.6973
  2021.6973  2023.4425  2023.4425  2025.1877  1989.4996  1991.2449
  1991.2449  1992.9901  1992.9901  1994.7353  1994.7353  1996.4806
  2009.4806  2011.2258  2011.2258  2012.9711  2012.9711  2014.7163
  2014.7163  2016.4615  2016.4615  2018.2068  2018.2068  2019.9520
  2019.9520  2021.6973  2021.6973  2023.4425  2023.4425  2025.1877
  1992.4992  1994.2444  1994.2444  1995.9896  1995.9896  1997.7349
  1997.7349  1999.4801  2012.4801  2014.2254  2014.2254  2015.9706
  2015.9706  2017.7158  2017.7158  2019.4611  2019.4611  2021.2063
  2021.2063  2022.9516  2022.9516  2024.6968  2024.6968  2026.4421
  2026.4421  2028.1873  1992.4992  1994.2444  1994.2444  1995.9896
  1995.9896  1997.7349  1997.7349  1999.4801  2012.4801  2014.2254
  2014.2254  2015.9706  2015.9706  2017.7158  2017.7158  2019.4611
  2019.4611  2021.2063  2021.2063  2022.9516  2022.9516  2024.6968
  2024.6968  2026.4421  2026.4421  2028.1873  1992.4992  1994.2444
  1994.2444  1995.9896  1995.9896  1997.7349  1997.7349  1999.4801
  2012.4801  2014.2254  2014.2254  2015.9706  2015.9706  2017.7158
  2017.7158  2019.4611  2019.4611  2021.2063  2021.2063  2022.9516
  2022.9516  2024.6968  2024.6968  2026.4421  2026.4421  2028.1873
  1992.4992  1994.2444  1994.2444  1995.9896  1995.9896  1997.7349
  1997.7349  1999.4801  2012.4801  2014.2254  2014.2254  2015.9706
  2015.9706  2017.7158  2017.7158  2019.4611  2019.4611  2021.2063
  2021.2063  2022.9516  2022.9516  2024.6968  2024.6968  2026.4421
  2026.4421  2028.1873  1992.4992  1994.2444  1994.2444  1995.9896
  1995.9896  1997.7349  1997.7349  1999.4801  2012.4801  2014.2254
  2014.2254  2015.9706  2015.9706  2017.7158  2017.7158  2019.4611
  2019.4611  2021.2063  2021.2063  2022.9516  2022.9516  2024.6968
  2024.6968  2026.4421  2026.4421  2028.1873  1992.4992  1994.2444
  1994.2444  1995.9896  1995.9896  1997.7349  1997.7349  1999.4801
  2012.4801  2014.2254  2014.2254  2015.9706  2015.9706  2017.7158
  2017.7158  2019.4611  2019.4611  2021.2063  2021.2063  2022.9516
  2022.9516  2024.6968  2024.6968  2026.4421  2026.4421  2028.1873
  1992.4992  1994.2444  1994.2444  1995.9896  1995.9896  1997.7349
  1997.7349  1999.4801  2012.4801  2014.2254  2014.2254  2015.9706
  2015.9706  2017.7158  2017.7158  2019.4611  2019.4611  2021.2063
  2021.2063  2022.9516  2022.9516  2024.6968  2024.6968  2026.4421
  2026.4421  2028.1873  1992.4992  1994.2444  1994.2444  1995.9896
  1995.9896  1997.7349  1997.7349  1999.4801  2012.4801  2014.2254
  2014.2254  2015.9706  2015.9706  2017.7158  2017.7158  2019.4611
  2019.4611  2021.2063  2021.2063  2022.9516  2022.9516  2024.6968
  2024.6968  2026.4421  2026.4421  2028.1873  1992.4992  1994.2444
  1994.2444  1995.9896  1995.9896  1997.7349  1997.7349  1999.4801
  2012.4801  2014.2254  2014.2254  2015.9706  2015.9706  2017.7158
  2017.7158  2019.4611  2019.4611  2021.2063  2021.2063  2022.9516
  2022.9516  2024.6968  2024.6968  2026.4421  2026.4421  2028.1873
  1992.4992  1994.2444  1994.2444  1995.9896  1995.9896  1997.7349
  1997.7349  1999.4801  2012.4801  2014.2254  2014.2254  2015.9706
  2015.9706  2017.7158  2017.7158  2019.4611  2019.4611  2021.2063
  2021.2063  2022.9516  2022.9516  2024.6968  2024.6968  2026.4421
  2026.4421  2028.1873  1992.4992  1994.2444  1994.2444  1995.9896
  1995.9896  1997.7349  1997.7349  1999.4801  2012.4801  2014.2254
  2014.2254  2015.9706  2015.9706  2017.7158  2017.7158  2019.4611
  2019.4611  2021.2063  2021.2063  2022.9516  2022.9516  2024.6968
  2024.6968  2026.4421  2026.4421  2028.1873  1992.4992  1994.2444
  1994.2444  1995.9896  1995.9896  1997.7349  1997.7349  1999.4801
  2012.4801  2014.2254  2014.2254  2015.9706  2015.9706  2017.7158
  2017.7158  2019.4611  2019.4611  2021.2063  2021.2063  2022.9516
  2022.9516  2024.6968  2024.6968  2026.4421  2026.4421  2028.1873
  1992.4992  1994.2444  1994.2444  1995.9896  1995.9896  1997.7349
  1997.7349  1999.4801  2012.4801  2014.2254  2014.2254  2015.9706
  2015.9706  2017.7158  2017.7158  2019.4611  2019.4611  2021.2063
  2021.2063  2022.9516  2022.9516  2024.6968  2024.6968  2026.4421
  2026.4421  2028.1873  1992.4992  1994.2444  1994.2444  1995.9896
  1995.9896  1997.7349  1997.7349  1999.4801  2012.4801  2014.2254
  2014.2254  2015.9706  2015.9706  2017.7158  2017.7158  2019.4611
  2019.4611  2021.2063  2021.2063  2022.9516  2022.9516  2024.6968
  2024.6968  2026.4421  2026.4421  2028.1873  1992.4992  1994.2444
  1994.2444  1995.9896  1995.9896  1997.7349  1997.7349  1999.4801
  2012.4801  2014.2254  2014.2254  2015.9706  2015.9706  2017.7158
  2017.7158  2019.4611  2019.4611  2021.2063  2021.2063  2022.9516
  2022.9516  2024.6968  2024.6968  2026.4421  2026.4421  2028.1873
  1992.4992  1994.2444  1994.2444  1995.9896  1995.9896  1997.7349
  1997.7349  1999.4801  2012.4801  2014.2254  2014.2254  2015.9706
  2015.9706  2017.7158  2017.7158  2019.4611  2019.4611  2021.2063
  2021.2063  2022.9516  2022.9516  2024.6968  2024.6968  2026.4421
  2026.4421  2028.1873  1995.9986  1997.7439  1997.7439  1999.4891
  1999.4891  2001.2344  2001.2344  2002.9796  2015.9796  2017.7248
  2017.7248  2019.4701  2019.4701  2021.2153  2021.2153  2022.9606
  2022.9606  2024.7058  2024.7058  2026.4510  2026.4510  2028.1963
  2028.1963  2029.9415  2029.9415  2031.6868  1995.9986  1997.7439
  1997.7439  1999.4891  1999.4891  2001.2344  2001.2344  2002.9796
  2015.9796  2017.7248  2017.7248  2019.4701  2019.4701  2021.2153
  2021.2153  2022.9606  2022.9606  2024.7058  2024.7058  2026.4510
  2026.4510  2028.1963  2028.1963  2029.9415  2029.9415  2031.6868
  1995.9986  1997.7439  1997.7439  1999.4891  1999.4891  2001.2344
  2001.2344  2002.9796  2015.9796  2017.7248  2017.7248  2019.4701
  2019.4701  2021.2153  2021.2153  2022.9606  2022.9606  2024.7058
  2024.7058  2026.4510  2026.4510  2028.1963  2028.1963  2029.9415
  2029.9415  2031.6868  1995.9986  1997.7439  1997.7439  1999.4891
  1999.4891  2001.2344  2001.2344  2002.9796  2015.9796  2017.7248
  2017.7248  2019.4701  2019.4701  2021.2153  2021.2153  2022.9606
  2022.9606  2024.7058  2024.7058  2026.4510  2026.4510  2028.1963
  2028.1963  2029.9415  2029.9415  2031.6868  1995.9986  1997.7439
  1997.7439  1999.4891  1999.4891  2001.2344  2001.2344  2002.9796
  2015.9796  2017.7248  2017.7248  2019.4701  2019.4701  2021.2153
  2021.2153  2022.9606  2022.9606  2024.7058  2024.7058  2026.4510
  2026.4510  2028.1963  2028.1963  2029.9415  2029.9415  2031.6868
  1995.9986  1997.7439  1997.7439  1999.4891  1999.4891  2001.2344
  2001.2344  2002.9796  2015.9796  2017.7248  2017.7248  2019.4701
  2019.4701  2021.2153  2021.2153  2022.9606  2022.9606  2024.7058
  2024.7058  2026.4510  2026.4510  2028.1963  2028.1963  2029.9415
  2029.9415  2031.6868  1995.9986  1997.7439  1997.7439  1999.4891
  1999.4891  2001.2344  2001.2344  2002.9796  2015.9796  2017.7248
  2017.7248  2019.4701  2019.4701  2021.2153  2021.2153  2022.9606
  2022.9606  2024.7058  2024.7058  2026.4510  2026.4510  2028.1963
  2028.1963  2029.9415  2029.9415  2031.6868  1995.9986  1997.7439
  1997.7439  1999.4891  1999.4891  2001.2344  2001.2344  2002.9796
  2015.9796  2017.7248  2017.7248  2019.4701  2019.4701  2021.2153
  2021.2153  2022.9606  2022.9606  2024.7058  2024.7058  2026.4510
  2026.4510  2028.1963  2028.1963  2029.9415  2029.9415  2031.6868
  1995.9986  1997.7439  1997.7439  1999.4891  1999.4891  2001.2344
  2001.2344  2002.9796  2015.9796  2017.7248  2017.7248  2019.4701
  2019.4701  2021.2153  2021.2153  2022.9606  2022.9606  2024.7058
  2024.7058  2026.4510  2026.4510  2028.1963  2028.1963  2029.9415
  2029.9415  2031.6868  1995.9986  1997.7439  1997.7439  1999.4891
  1999.4891  2001.2344  2001.2344  2002.9796  2015.9796  2017.7248
  2017.7248  2019.4701  2019.4701  2021.2153  2021.2153  2022.9606
  2022.9606  2024.7058  2024.7058  2026.4510  2026.4510  2028.1963
  2028.1963  2029.9415  2029.9415  2031.6868  1995.9986  1997.7439
  1997.7439  1999.4891  1999.4891  2001.2344  2001.2344  2002.9796
  2015.9796  2017.7248  2017.7248  2019.4701  2019.4701  2021.2153
  2021.2153  2022.9606  2022.9606  2024.7058  2024.7058  2026.4510
  2026.4510  2028.1963  2028.1963  2029.9415  2029.9415  2031.6868
  1995.9986  1997.7439  1997.7439  1999.4891  1999.4891  2001.2344
  2001.2344  2002.9796  2015.9796  2017.7248  2017.7248  2019.4701
  2019.4701  2021.2153  2021.2153  2022.9606  2022.9606  2024.7058
  2024.7058  2026.4510  2026.4510  2028.1963  2028.1963  2029.9415
  2029.9415  2031.6868  1995.9986  1997.7439  1997.7439  1999.4891
  1999.4891  2001.2344  2001.2344  2002.9796  2015.9796  2017.7248
  2017.7248  2019.4701  2019.4701  2021.2153  2021.2153  2022.9606
  2022.9606  2024.7058  2024.7058  2026.4510  2026.4510  2028.1963
  2028.1963  2029.9415  2029.9415  2031.6868  1995.9986  1997.7439
  1997.7439  1999.4891  1999.4891  2001.2344  2001.2344  2002.9796
  2015.9796  2017.7248  2017.7248  2019.4701  2019.4701  2021.2153
  2021.2153  2022.9606  2022.9606  2024.7058  2024.7058  2026.4510
  2026.4510  2028.1963  2028.1963  2029.9415  2029.9415  2031.6868
  1995.9986  1997.7439  1997.7439  1999.4891  1999.4891  2001.2344
  2001.2344  2002.9796  2015.9796  2017.7248  2017.7248  2019.4701
  2019.4701  2021.2153  2021.2153  2022.9606  2022.9606  2024.7058
  2024.7058  2026.4510  2026.4510  2028.1963  2028.1963  2029.9415
  2029.9415  2031.6868  1995.9986  1997.7439  1997.7439  1999.4891
  1999.4891  2001.2344  2001.2344  2002.9796  2015.9796  2017.7248
  2017.7248  2019.4701  2019.4701  2021.2153  2021.2153  2022.9606
  2022.9606  2024.7058  2024.7058  2026.4510  2026.4510  2028.1963
  2028.1963  2029.9415  2029.9415  2031.6868  1999.9980  2001.7433
  2001.7433  2003.4885  2003.4885  2005.2337  2005.2337  2006.9790
  2019.9790  2021.7242  2021.7242  2023.4695  2023.4695  2025.2147
  2025.2147  2026.9599  2026.9599  2028.7052  2028.7052  2030.4504
  2030.4504  2032.1957  2032.1957  2033.9409  2033.9409  2035.6861
  1999.9980  2001.7433  2001.7433  2003.4885  2003.4885  2005.2337
  2005.2337  2006.9790  2019.9790  2021.7242  2021.7242  2023.4695
  2023.4695  2025.2147  2025.2147  2026.9599  2026.9599  2028.7052
  2028.7052  2030.4504  2030.4504  2032.1957  2032.1957  2033.9409
  2033.9409  2035.6861  1999.9980  2001.7433  2001.7433  2003.4885
  2003.4885  2005.2337  2005.2337  2006.9790  2019.9790  2021.7242
  2021.7242  2023.4695  2023.4695  2025.2147  2025.2147  2026.9599
  2026.9599  2028.7052  2028.7052  2030.4504  2030.4504  2032.1957
  2032.1957  2033.9409  2033.9409  2035.6861  1999.9980  2001.7433
  2001.7433  2003.4885  2003.4885  2005.2337  2005.2337  2006.9790
  2019.9790  2021.7242  2021.7242  2023.4695  2023.4695  2025.2147
  2025.2147  2026.9599  2026.9599  2028.7052  2028.7052  2030.4504
  2030.4504  2032.1957  2032.1957  2033.9409  2033.9409  2035.6861
  1999.9980  2001.7433  2001.7433  2003.4885  2003.4885  2005.2337
  2005.2337  2006.9790  2019.9790  2021.7242  2021.7242  2023.4695
  2023.4695  2025.2147  2025.2147  2026.9599  2026.9599  2028.7052
  2028.7052  2030.4504  2030.4504  2032.1957  2032.1957  2033.9409
  2033.9409  2035.6861  1999.9980  2001.7433  2001.7433  2003.4885
  2003.4885  2005.2337  2005.2337  2006.9790  2019.9790  2021.7242
  2021.7242  2023.4695  2023.4695  2025.2147  2025.2147  2026.9599
  2026.9599  2028.7052  2028.7052  2030.4504  2030.4504  2032.1957
  2032.1957  2033.9409  2033.9409  2035.6861  1999.9980  2001.7433
  2001.7433  2003.4885  2003.4885  2005.2337  2005.2337  2006.9790
  2019.9790  2021.7242  2021.7242  2023.4695  2023.4695  2025.2147
  2025.2147  2026.9599  2026.9599  2028.7052  2028.7052  2030.4504
  2030.4504  2032.1957  2032.1957  2033.9409  2033.9409  2035.6861
  1999.9980  2001.7433  2001.7433  2003.4885  2003.4885  2005.2337
  2005.2337  2006.9790  2019.9790  2021.7242  2021.7242  2023.4695
  2023.4695  2025.2147  2025.2147  2026.9599  2026.9599  2028.7052
  2028.7052  2030.4504  2030.4504  2032.1957  2032.1957  2033.9409
  2033.9409  2035.6861  1999.9980  2001.7433  2001.7433  2003.4885
  2003.4885  2005.2337  2005.2337  2006.9790  2019.9790  2021.7242
  2021.7242  2023.4695  2023.4695  2025.2147  2025.2147  2026.9599
  2026.9599  2028.7052  2028.7052  2030.4504  2030.4504  2032.1957
  2032.1957  2033.9409  2033.9409  2035.6861  1999.9980  2001.7433
  2001.7433  2003.4885  2003.4885  2005.2337  2005.2337  2006.9790
  2019.9790  2021.7242  2021.7242  2023.4695  2023.4695  2025.2147
  2025.2147  2026.9599  2026.9599  2028.7052  2028.7052  2030.4504
  2030.4504  2032.1957  2032.1957  2033.9409  2033.9409  2035.6861
  1999.9980  2001.7433  2001.7433  2003.4885  2003.4885  2005.2337
  2005.2337  2006.9790  2019.9790  2021.7242  2021.7242  2023.4695
  2023.4695  2025.2147  2025.2147  2026.9599  2026.9599  2028.7052
  2028.7052  2030.4504  2030.4504  2032.1957  2032.1957  2033.9409
  2033.9409  2035.6861  1999.9980  2001.7433  2001.7433  2003.4885
  2003.4885  2005.2337  2005.2337  2006.9790  2019.9790  2021.7242
  2021.7242  2023.4695  2023.4695  2025.2147  2025.2147  2026.9599
  2026.9599  2028.7052  2028.7052  2030.4504  2030.4504  2032.1957
  2032.1957  2033.9409  2033.9409  2035.6861  1999.9980  2001.7433
  2001.7433  2003.4885  2003.4885  2005.2337  2005.2337  2006.9790
  2019.9790  2021.7242  2021.7242  2023.4695  2023.4695  2025.2147
  2025.2147  2026.9599  2026.9599  2028.7052  2028.7052  2030.4504
  2030.4504  2032.1957  2032.1957  2033.9409  2033.9409  2035.6861
  1999.9980  2001.7433  2001.7433  2003.4885  2003.4885  2005.2337
  2005.2337  2006.9790  2019.9790  2021.7242  2021.7242  2023.4695
  2023.4695  2025.2147  2025.2147  2026.9599  2026.9599  2028.7052
  2028.7052  2030.4504  2030.4504  2032.1957  2032.1957  2033.9409
  2033.9409  2035.6861  1999.9980  2001.7433  2001.7433  2003.4885
  2003.4885  2005.2337  2005.2337  2006.9790  2019.9790  2021.7242
  2021.7242  2023.4695  2023.4695  2025.2147  2025.2147  2026.9599
  2026.9599  2028.7052  2028.7052  2030.4504  2030.4504  2032.1957
  2032.1957  2033.9409  2033.9409  2035.6861  1999.9980  2001.7433
  2001.7433  2003.4885  2003.4885  2005.2337  2005.2337  2006.9790
  2019.9790  2021.7242  2021.7242  2023.4695  2023.4695  2025.2147
  2025.2147  2026.9599  2026.9599  2028.7052  2028.7052  2030.4504
  2030.4504  2032.1957  2032.1957  2033.9409  2033.9409  2035.6861
  2004.4973  2006.2426  2006.2426  2007.9878  2007.9878  2009.7331
  2009.7331  2011.4783  2024.4783  2026.2235  2026.2235  2027.9688
  2027.9688  2029.7140  2029.7140  2031.4593  2031.4593  2033.2045
  2033.2045  2034.9497  2034.9497  2036.6950  2036.6950  2038.4402
  2038.4402  2040.1855  2004.4973  2006.2426  2006.2426  2007.9878
  2007.9878  2009.7331  2009.7331  2011.4783  2024.4783  2026.2235
  2026.2235  2027.9688  2027.9688  2029.7140  2029.7140  2031.4593
  2031.4593  2033.2045  2033.2045  2034.9497  2034.9497  2036.6950
  2036.6950  2038.4402  2038.4402  2040.1855  2004.4973  2006.2426
  2006.2426  2007.9878  2007.9878  2009.7331  2009.7331  2011.4783
  2024.4783  2026.2235  2026.2235  2027.9688  2027.9688  2029.7140
  2029.7140  2031.4593  2031.4593  2033.2045  2033.2045  2034.9497
  2034.9497  2036.6950  2036.6950  2038.4402  2038.4402  2040.1855
  2004.4973  2006.2426  2006.2426  2007.9878  2007.9878  2009.7331
  2009.7331  2011.4783  2024.4783  2026.2235  2026.2235  2027.9688
  2027.9688  2029.7140  2029.7140  2031.4593  2031.4593  2033.2045
  2033.2045  2034.9497  2034.9497  2036.6950  2036.6950  2038.4402
  2038.4402  2040.1855  2004.4973  2006.2426  2006.2426  2007.9878
  2007.9878  2009.7331  2009.7331  2011.4783  2024.4783  2026.2235
  2026.2235  2027.9688  2027.9688  2029.7140  2029.7140  2031.4593
  2031.4593  2033.2045  2033.2045  2034.9497  2034.9497  2036.6950
  2036.6950  2038.4402  2038.4402  2040.1855  2004.4973  2006.2426
  2006.2426  2007.9878  2007.9878  2009.7331  2009.7331  2011.4783
  2024.4783  2026.2235  2026.2235  2027.9688  2027.9688  2029.7140
  2029.7140  2031.4593  2031.4593  2033.2045  2033.2045  2034.9497
  2034.9497  2036.6950  2036.6950  2038.4402  2038.4402  2040.1855
  2004.4973  2006.2426  2006.2426  2007.9878  2007.9878  2009.7331
  2009.7331  2011.4783  2024.4783  2026.2235  2026.2235  2027.9688
  2027.9688  2029.7140  2029.7140  2031.4593  2031.4593  2033.2045
  2033.2045  2034.9497  2034.9497  2036.6950  2036.6950  2038.4402
  2038.4402  2040.1855  2004.4973  2006.2426  2006.2426  2007.9878
  2007.9878  2009.7331  2009.7331  2011.4783  2024.4783  2026.2235
  2026.2235  2027.9688  2027.9688  2029.7140  2029.7140  2031.4593
  2031.4593  2033.2045  2033.2045  2034.9497  2034.9497  2036.6950
  2036.6950  2038.4402  2038.4402  2040.1855 / 


ACTNUM
  11*1 2*0 11*1 2*0 11*1 2*0 11*1 2*0
  11*1 2*0 11*1 2*0 11*1 2*0 11*1 2*0
  11*1 2*0 11*1 2*0 11*1 2*0 11*1 2*0
  11*1 2*0 11*1 2*0 11*1 2*0 11*1 2*0
  11*1 2*0 11*1 2*0 11*1 2*0 11*1 2*0 /
   
