SPECGRID
 2 3 5 1 F / 

COORD
  2000.0000  2000.0000  2000.0000   2000.0000  2000.0000  2012.5000 
  2100.0000  2000.0000  2000.0000   2100.0000  2000.0000  2012.5000 
  2200.0000  2000.0000  2000.0000   2200.0000  2000.0000  2012.5000 
  2000.0000  2100.0000  2000.0000   2000.0000  2100.0000  2012.5000 
  2100.0000  2100.0000  2000.0000   2100.0000  2100.0000  2012.5000 
  2200.0000  2100.0000  2000.0000   2200.0000  2100.0000  2012.5000 
  2000.0000  2200.0000  2000.0000   2000.0000  2200.0000  2012.5000 
  2100.0000  2200.0000  2000.0000   2100.0000  2200.0000  2012.5000 
  2200.0000  2200.0000  2000.0000   2200.0000  2200.0000  2012.5000 
  2000.0000  2300.0000  2000.0000   2000.0000  2300.0000  2012.5000 
  2100.0000  2300.0000  2000.0000   2100.0000  2300.0000  2012.5000 
  2200.0000  2300.0000  2000.0000   2200.0000  2300.0000  2012.5000 
/ 

ZCORN
  2000.0000  2000.0000  2000.0000  2000.0000  2000.0000  2000.0000
  2000.0000  2000.0000  2000.0000  2000.0000  2000.0000  2000.0000
  2000.0000  2000.0000  2000.0000  2000.0000  2000.0000  2000.0000
  2000.0000  2000.0000  2000.0000  2000.0000  2000.0000  2000.0000
  2002.5000  2002.5000  2002.5000  2002.5000  2002.5000  2002.5000
  2002.5000  2002.5000  2002.5000  2002.5000  2002.5000  2002.5000
  2002.5000  2002.5000  2002.5000  2002.5000  2002.5000  2002.5000
  2002.5000  2002.5000  2002.5000  2002.5000  2002.5000  2002.5000
  2002.5000  2002.5000  2002.5000  2002.5000  2002.5000  2002.5000
  2002.5000  2002.5000  2002.5000  2002.5000  2002.5000  2002.5000
  2002.5000  2002.5000  2002.5000  2002.5000  2002.5000  2002.5000
  2002.5000  2002.5000  2002.5000  2002.5000  2002.5000  2002.5000
  2005.0000  2005.0000  2005.0000  2005.0000  2005.0000  2005.0000
  2005.0000  2005.0000  2005.0000  2005.0000  2005.0000  2005.0000
  2005.0000  2005.0000  2005.0000  2005.0000  2005.0000  2005.0000
  2005.0000  2005.0000  2005.0000  2005.0000  2005.0000  2005.0000
  2005.0000  2005.0000  2005.0000  2005.0000  2005.0000  2005.0000
  2005.0000  2005.0000  2005.0000  2005.0000  2005.0000  2005.0000
  2005.0000  2005.0000  2005.0000  2005.0000  2005.0000  2005.0000
  2005.0000  2005.0000  2005.0000  2005.0000  2005.0000  2005.0000
  2007.5000  2007.5000  2007.5000  2007.5000  2007.5000  2007.5000
  2007.5000  2007.5000  2007.5000  2007.5000  2007.5000  2007.5000
  2007.5000  2007.5000  2007.5000  2007.5000  2007.5000  2007.5000
  2007.5000  2007.5000  2007.5000  2007.5000  2007.5000  2007.5000
  2007.5000  2007.5000  2007.5000  2007.5000  2007.5000  2007.5000
  2007.5000  2007.5000  2007.5000  2007.5000  2007.5000  2007.5000
  2007.5000  2007.5000  2007.5000  2007.5000  2007.5000  2007.5000
  2007.5000  2007.5000  2007.5000  2007.5000  2007.5000  2007.5000
  2010.0000  2010.0000  2010.0000  2010.0000  2010.0000  2010.0000
  2010.0000  2010.0000  2010.0000  2010.0000  2010.0000  2010.0000
  2010.0000  2010.0000  2010.0000  2010.0000  2010.0000  2010.0000
  2010.0000  2010.0000  2010.0000  2010.0000  2010.0000  2010.0000
  2010.0000  2010.0000  2010.0000  2010.0000  2010.0000  2010.0000
  2010.0000  2010.0000  2010.0000  2010.0000  2010.0000  2010.0000
  2010.0000  2010.0000  2010.0000  2010.0000  2010.0000  2010.0000
  2010.0000  2010.0000  2010.0000  2010.0000  2010.0000  2010.0000
  2012.5000  2012.5000  2012.5000  2012.5000  2012.5000  2012.5000
  2012.5000  2012.5000  2012.5000  2012.5000  2012.5000  2012.5000
  2012.5000  2012.5000  2012.5000  2012.5000  2012.5000  2012.5000
  2012.5000  2012.5000  2012.5000  2012.5000  2012.5000  2012.5000
 / 
