SPECGRID
 12 12 7 1 F / 

COORD
  2000.0000  2000.0000  2000.0000   2000.0000  2000.0000  2017.4967 
  2099.9848  2000.0000  2001.7452   2099.9848  2000.0000  2019.2419 
  2199.9695  2000.0000  2003.4905   2199.9695  2000.0000  2020.9871 
  2299.9543  2000.0000  2005.2357   2299.9543  2000.0000  2022.7324 
  2399.9391  2000.0000  2006.9810   2399.9391  2000.0000  2024.4776 
  2499.9238  2000.0000  2008.7262   2499.9238  2000.0000  2026.2229 
  2599.9086  2000.0000  2010.4714   2599.9086  2000.0000  2027.9681 
  2699.8934  2000.0000  2012.2167   2699.8934  2000.0000  2029.7134 
  2799.8782  2000.0000  2013.9619   2799.8782  2000.0000  2031.4586 
  2899.8629  2000.0000  2015.7072   2899.8629  2000.0000  2033.2038 
  2999.8477  2000.0000  2017.4524   2999.8477  2000.0000  2034.9491 
  3099.8325  2000.0000  2019.1976   3099.8325  2000.0000  2036.6943 
  3199.8172  2000.0000  2020.9429   3199.8172  2000.0000  2038.4396 
  2000.0000  2099.9962  2000.8727   2000.0000  2099.9962  2018.3693 
  2099.9848  2099.9962  2002.6179   2099.9848  2099.9962  2020.1146 
  2199.9695  2099.9962  2004.3631   2199.9695  2099.9962  2021.8598 
  2299.9543  2099.9962  2006.1084   2299.9543  2099.9962  2023.6050 
  2399.9391  2099.9962  2007.8536   2399.9391  2099.9962  2025.3503 
  2499.9238  2099.9962  2009.5989   2499.9238  2099.9962  2027.0955 
  2599.9086  2099.9962  2011.3441   2599.9086  2099.9962  2028.8408 
  2699.8934  2099.9962  2013.0893   2699.8934  2099.9962  2030.5860 
  2799.8782  2099.9962  2014.8346   2799.8782  2099.9962  2032.3312 
  2899.8629  2099.9962  2016.5798   2899.8629  2099.9962  2034.0765 
  2999.8477  2099.9962  2018.3251   2999.8477  2099.9962  2035.8217 
  3099.8325  2099.9962  2020.0703   3099.8325  2099.9962  2037.5670 
  3199.8172  2099.9962  2021.8155   3199.8172  2099.9962  2039.3122 
  2000.0000  2199.9924  2001.7453   2000.0000  2199.9924  2019.2420 
  2099.9848  2199.9924  2003.4905   2099.9848  2199.9924  2020.9872 
  2199.9695  2199.9924  2005.2358   2199.9695  2199.9924  2022.7325 
  2299.9543  2199.9924  2006.9810   2299.9543  2199.9924  2024.4777 
  2399.9391  2199.9924  2008.7263   2399.9391  2199.9924  2026.2229 
  2499.9238  2199.9924  2010.4715   2499.9238  2199.9924  2027.9682 
  2599.9086  2199.9924  2012.2168   2599.9086  2199.9924  2029.7134 
  2699.8934  2199.9924  2013.9620   2699.8934  2199.9924  2031.4587 
  2799.8782  2199.9924  2015.7072   2799.8782  2199.9924  2033.2039 
  2899.8629  2199.9924  2017.4525   2899.8629  2199.9924  2034.9491 
  2999.8477  2199.9924  2019.1977   2999.8477  2199.9924  2036.6944 
  3099.8325  2199.9924  2020.9430   3099.8325  2199.9924  2038.4396 
  3199.8172  2199.9924  2022.6882   3199.8172  2199.9924  2040.1849 
  2000.0000  2299.9886  2002.6180   2000.0000  2299.9886  2020.1146 
  2099.9848  2299.9886  2004.3632   2099.9848  2299.9886  2021.8599 
  2199.9695  2299.9886  2006.1084   2199.9695  2299.9886  2023.6051 
  2299.9543  2299.9886  2007.8537   2299.9543  2299.9886  2025.3504 
  2399.9391  2299.9886  2009.5989   2399.9391  2299.9886  2027.0956 
  2499.9238  2299.9886  2011.3442   2499.9238  2299.9886  2028.8408 
  2599.9086  2299.9886  2013.0894   2599.9086  2299.9886  2030.5861 
  2699.8934  2299.9886  2014.8346   2699.8934  2299.9886  2032.3313 
  2799.8782  2299.9886  2016.5799   2799.8782  2299.9886  2034.0766 
  2899.8629  2299.9886  2018.3251   2899.8629  2299.9886  2035.8218 
  2999.8477  2299.9886  2020.0704   2999.8477  2299.9886  2037.5670 
  3099.8325  2299.9886  2021.8156   3099.8325  2299.9886  2039.3123 
  3199.8172  2299.9886  2023.5608   3199.8172  2299.9886  2041.0575 
  2000.0000  2399.9848  2003.4906   2000.0000  2399.9848  2020.9873 
  2099.9848  2399.9848  2005.2359   2099.9848  2399.9848  2022.7325 
  2199.9695  2399.9848  2006.9811   2199.9695  2399.9848  2024.4778 
  2299.9543  2399.9848  2008.7263   2299.9543  2399.9848  2026.2230 
  2399.9391  2399.9848  2010.4716   2399.9391  2399.9848  2027.9682 
  2499.9238  2399.9848  2012.2168   2499.9238  2399.9848  2029.7135 
  2599.9086  2399.9848  2013.9621   2599.9086  2399.9848  2031.4587 
  2699.8934  2399.9848  2015.7073   2699.8934  2399.9848  2033.2040 
  2799.8782  2399.9848  2017.4525   2799.8782  2399.9848  2034.9492 
  2899.8629  2399.9848  2019.1978   2899.8629  2399.9848  2036.6944 
  2999.8477  2399.9848  2020.9430   2999.8477  2399.9848  2038.4397 
  3099.8325  2399.9848  2022.6883   3099.8325  2399.9848  2040.1849 
  3199.8172  2399.9848  2024.4335   3199.8172  2399.9848  2041.9302 
  2000.0000  2499.9810  2004.3633   2000.0000  2499.9810  2021.8599 
  2099.9848  2499.9810  2006.1085   2099.9848  2499.9810  2023.6052 
  2199.9695  2499.9810  2007.8537   2199.9695  2499.9810  2025.3504 
  2299.9543  2499.9810  2009.5990   2299.9543  2499.9810  2027.0957 
  2399.9391  2499.9810  2011.3442   2399.9391  2499.9810  2028.8409 
  2499.9238  2499.9810  2013.0895   2499.9238  2499.9810  2030.5861 
  2599.9086  2499.9810  2014.8347   2599.9086  2499.9810  2032.3314 
  2699.8934  2499.9810  2016.5800   2699.8934  2499.9810  2034.0766 
  2799.8782  2499.9810  2018.3252   2799.8782  2499.9810  2035.8219 
  2899.8629  2499.9810  2020.0704   2899.8629  2499.9810  2037.5671 
  2999.8477  2499.9810  2021.8157   2999.8477  2499.9810  2039.3123 
  3099.8325  2499.9810  2023.5609   3099.8325  2499.9810  2041.0576 
  3199.8172  2499.9810  2025.3062   3199.8172  2499.9810  2042.8028 
  2000.0000  2599.9772  2005.2359   2000.0000  2599.9772  2022.7326 
  2099.9848  2599.9772  2006.9812   2099.9848  2599.9772  2024.4778 
  2199.9695  2599.9772  2008.7264   2199.9695  2599.9772  2026.2231 
  2299.9543  2599.9772  2010.4716   2299.9543  2599.9772  2027.9683 
  2399.9391  2599.9772  2012.2169   2399.9391  2599.9772  2029.7136 
  2499.9238  2599.9772  2013.9621   2499.9238  2599.9772  2031.4588 
  2599.9086  2599.9772  2015.7074   2599.9086  2599.9772  2033.2040 
  2699.8934  2599.9772  2017.4526   2699.8934  2599.9772  2034.9493 
  2799.8782  2599.9772  2019.1978   2799.8782  2599.9772  2036.6945 
  2899.8629  2599.9772  2020.9431   2899.8629  2599.9772  2038.4398 
  2999.8477  2599.9772  2022.6883   2999.8477  2599.9772  2040.1850 
  3099.8325  2599.9772  2024.4336   3099.8325  2599.9772  2041.9302 
  3199.8172  2599.9772  2026.1788   3199.8172  2599.9772  2043.6755 
  2000.0000  2699.9733  2006.1086   2000.0000  2699.9733  2023.6052 
  2099.9848  2699.9733  2007.8538   2099.9848  2699.9733  2025.3505 
  2199.9695  2699.9733  2009.5991   2199.9695  2699.9733  2027.0957 
  2299.9543  2699.9733  2011.3443   2299.9543  2699.9733  2028.8410 
  2399.9391  2699.9733  2013.0895   2399.9391  2699.9733  2030.5862 
  2499.9238  2699.9733  2014.8348   2499.9238  2699.9733  2032.3314 
  2599.9086  2699.9733  2016.5800   2599.9086  2699.9733  2034.0767 
  2699.8934  2699.9733  2018.3253   2699.8934  2699.9733  2035.8219 
  2799.8782  2699.9733  2020.0705   2799.8782  2699.9733  2037.5672 
  2899.8629  2699.9733  2021.8157   2899.8629  2699.9733  2039.3124 
  2999.8477  2699.9733  2023.5610   2999.8477  2699.9733  2041.0576 
  3099.8325  2699.9733  2025.3062   3099.8325  2699.9733  2042.8029 
  3199.8172  2699.9733  2027.0515   3199.8172  2699.9733  2044.5481 
  2000.0000  2799.9695  2006.9812   2000.0000  2799.9695  2024.4779 
  2099.9848  2799.9695  2008.7265   2099.9848  2799.9695  2026.2231 
  2199.9695  2799.9695  2010.4717   2199.9695  2799.9695  2027.9684 
  2299.9543  2799.9695  2012.2170   2299.9543  2799.9695  2029.7136 
  2399.9391  2799.9695  2013.9622   2399.9391  2799.9695  2031.4589 
  2499.9238  2799.9695  2015.7074   2499.9238  2799.9695  2033.2041 
  2599.9086  2799.9695  2017.4527   2599.9086  2799.9695  2034.9493 
  2699.8934  2799.9695  2019.1979   2699.8934  2799.9695  2036.6946 
  2799.8782  2799.9695  2020.9432   2799.8782  2799.9695  2038.4398 
  2899.8629  2799.9695  2022.6884   2899.8629  2799.9695  2040.1851 
  2999.8477  2799.9695  2024.4336   2999.8477  2799.9695  2041.9303 
  3099.8325  2799.9695  2026.1789   3099.8325  2799.9695  2043.6755 
  3199.8172  2799.9695  2027.9241   3199.8172  2799.9695  2045.4208 
  2000.0000  2899.9657  2007.8539   2000.0000  2899.9657  2025.3506 
  2099.9848  2899.9657  2009.5991   2099.9848  2899.9657  2027.0958 
  2199.9695  2899.9657  2011.3444   2199.9695  2899.9657  2028.8410 
  2299.9543  2899.9657  2013.0896   2299.9543  2899.9657  2030.5863 
  2399.9391  2899.9657  2014.8348   2399.9391  2899.9657  2032.3315 
  2499.9238  2899.9657  2016.5801   2499.9238  2899.9657  2034.0768 
  2599.9086  2899.9657  2018.3253   2599.9086  2899.9657  2035.8220 
  2699.8934  2899.9657  2020.0706   2699.8934  2899.9657  2037.5672 
  2799.8782  2899.9657  2021.8158   2799.8782  2899.9657  2039.3125 
  2899.8629  2899.9657  2023.5610   2899.8629  2899.9657  2041.0577 
  2999.8477  2899.9657  2025.3063   2999.8477  2899.9657  2042.8030 
  3099.8325  2899.9657  2027.0515   3099.8325  2899.9657  2044.5482 
  3199.8172  2899.9657  2028.7968   3199.8172  2899.9657  2046.2934 
  2000.0000  2999.9619  2008.7265   2000.0000  2999.9619  2026.2232 
  2099.9848  2999.9619  2010.4718   2099.9848  2999.9619  2027.9684 
  2199.9695  2999.9619  2012.2170   2199.9695  2999.9619  2029.7137 
  2299.9543  2999.9619  2013.9623   2299.9543  2999.9619  2031.4589 
  2399.9391  2999.9619  2015.7075   2399.9391  2999.9619  2033.2042 
  2499.9238  2999.9619  2017.4527   2499.9238  2999.9619  2034.9494 
  2599.9086  2999.9619  2019.1980   2599.9086  2999.9619  2036.6946 
  2699.8934  2999.9619  2020.9432   2699.8934  2999.9619  2038.4399 
  2799.8782  2999.9619  2022.6885   2799.8782  2999.9619  2040.1851 
  2899.8629  2999.9619  2024.4337   2899.8629  2999.9619  2041.9304 
  2999.8477  2999.9619  2026.1789   2999.8477  2999.9619  2043.6756 
  3099.8325  2999.9619  2027.9242   3099.8325  2999.9619  2045.4209 
  3199.8172  2999.9619  2029.6694   3199.8172  2999.9619  2047.1661 
  2000.0000  3099.9581  2009.5992   2000.0000  3099.9581  2027.0959 
  2099.9848  3099.9581  2011.3444   2099.9848  3099.9581  2028.8411 
  2199.9695  3099.9581  2013.0897   2199.9695  3099.9581  2030.5863 
  2299.9543  3099.9581  2014.8349   2299.9543  3099.9581  2032.3316 
  2399.9391  3099.9581  2016.5802   2399.9391  3099.9581  2034.0768 
  2499.9238  3099.9581  2018.3254   2499.9238  3099.9581  2035.8221 
  2599.9086  3099.9581  2020.0706   2599.9086  3099.9581  2037.5673 
  2699.8934  3099.9581  2021.8159   2699.8934  3099.9581  2039.3125 
  2799.8782  3099.9581  2023.5611   2799.8782  3099.9581  2041.0578 
  2899.8629  3099.9581  2025.3064   2899.8629  3099.9581  2042.8030 
  2999.8477  3099.9581  2027.0516   2999.8477  3099.9581  2044.5483 
  3099.8325  3099.9581  2028.7968   3099.8325  3099.9581  2046.2935 
  3199.8172  3099.9581  2030.5421   3199.8172  3099.9581  2048.0387 
  2000.0000  3199.9543  2010.4718   2000.0000  3199.9543  2027.9685 
  2099.9848  3199.9543  2012.2171   2099.9848  3199.9543  2029.7138 
  2199.9695  3199.9543  2013.9623   2199.9695  3199.9543  2031.4590 
  2299.9543  3199.9543  2015.7076   2299.9543  3199.9543  2033.2042 
  2399.9391  3199.9543  2017.4528   2399.9391  3199.9543  2034.9495 
  2499.9238  3199.9543  2019.1980   2499.9238  3199.9543  2036.6947 
  2599.9086  3199.9543  2020.9433   2599.9086  3199.9543  2038.4400 
  2699.8934  3199.9543  2022.6885   2699.8934  3199.9543  2040.1852 
  2799.8782  3199.9543  2024.4338   2799.8782  3199.9543  2041.9304 
  2899.8629  3199.9543  2026.1790   2899.8629  3199.9543  2043.6757 
  2999.8477  3199.9543  2027.9242   2999.8477  3199.9543  2045.4209 
  3099.8325  3199.9543  2029.6695   3099.8325  3199.9543  2047.1662 
  3199.8172  3199.9543  2031.4147   3199.8172  3199.9543  2048.9114 
/ 

ZCORN
  2000.0000  2001.7452  2001.7452  2003.4905  2003.4905  2005.2357
  2005.2357  2006.9810  2006.9810  2008.7262  2008.7262  2010.4714
  2010.4714  2012.2167  2012.2167  2013.9619  2013.9619  2015.7072
  2015.7072  2017.4524  2017.4524  2019.1976  2019.1976  2020.9429
  2000.8727  2002.6179  2002.6179  2004.3631  2004.3631  2006.1084
  2006.1084  2007.8536  2007.8536  2009.5989  2009.5989  2011.3441
  2011.3441  2013.0893  2013.0893  2014.8346  2014.8346  2016.5798
  2016.5798  2018.3251  2018.3251  2020.0703  2020.0703  2021.8155
  2000.8727  2002.6179  2002.6179  2004.3631  2004.3631  2006.1084
  2006.1084  2007.8536  2007.8536  2009.5989  2009.5989  2011.3441
  2011.3441  2013.0893  2013.0893  2014.8346  2014.8346  2016.5798
  2016.5798  2018.3251  2018.3251  2020.0703  2020.0703  2021.8155
  2001.7453  2003.4905  2003.4905  2005.2358  2005.2358  2006.9810
  2006.9810  2008.7263  2008.7263  2010.4715  2010.4715  2012.2168
  2012.2168  2013.9620  2013.9620  2015.7072  2015.7072  2017.4525
  2017.4525  2019.1977  2019.1977  2020.9430  2020.9430  2022.6882
  2001.7453  2003.4905  2003.4905  2005.2358  2005.2358  2006.9810
  2006.9810  2008.7263  2008.7263  2010.4715  2010.4715  2012.2168
  2012.2168  2013.9620  2013.9620  2015.7072  2015.7072  2017.4525
  2017.4525  2019.1977  2019.1977  2020.9430  2020.9430  2022.6882
  2002.6180  2004.3632  2004.3632  2006.1084  2006.1084  2007.8537
  2007.8537  2009.5989  2009.5989  2011.3442  2011.3442  2013.0894
  2013.0894  2014.8346  2014.8346  2016.5799  2016.5799  2018.3251
  2018.3251  2020.0704  2020.0704  2021.8156  2021.8156  2023.5608
  2002.6180  2004.3632  2004.3632  2006.1084  2006.1084  2007.8537
  2007.8537  2009.5989  2009.5989  2011.3442  2011.3442  2013.0894
  2013.0894  2014.8346  2014.8346  2016.5799  2016.5799  2018.3251
  2018.3251  2020.0704  2020.0704  2021.8156  2021.8156  2023.5608
  2003.4906  2005.2359  2005.2359  2006.9811  2006.9811  2008.7263
  2008.7263  2010.4716  2010.4716  2012.2168  2012.2168  2013.9621
  2013.9621  2015.7073  2015.7073  2017.4525  2017.4525  2019.1978
  2019.1978  2020.9430  2020.9430  2022.6883  2022.6883  2024.4335
  2003.4906  2005.2359  2005.2359  2006.9811  2006.9811  2008.7263
  2008.7263  2010.4716  2010.4716  2012.2168  2012.2168  2013.9621
  2013.9621  2015.7073  2015.7073  2017.4525  2017.4525  2019.1978
  2019.1978  2020.9430  2020.9430  2022.6883  2022.6883  2024.4335
  2004.3633  2006.1085  2006.1085  2007.8537  2007.8537  2009.5990
  2009.5990  2011.3442  2011.3442  2013.0895  2013.0895  2014.8347
  2014.8347  2016.5800  2016.5800  2018.3252  2018.3252  2020.0704
  2020.0704  2021.8157  2021.8157  2023.5609  2023.5609  2025.3062
  2004.3633  2006.1085  2006.1085  2007.8537  2007.8537  2009.5990
  2009.5990  2011.3442  2011.3442  2013.0895  2013.0895  2014.8347
  2014.8347  2016.5800  2016.5800  2018.3252  2018.3252  2020.0704
  2020.0704  2021.8157  2021.8157  2023.5609  2023.5609  2025.3062
  2005.2359  2006.9812  2006.9812  2008.7264  2008.7264  2010.4716
  2010.4716  2012.2169  2012.2169  2013.9621  2013.9621  2015.7074
  2015.7074  2017.4526  2017.4526  2019.1978  2019.1978  2020.9431
  2020.9431  2022.6883  2022.6883  2024.4336  2024.4336  2026.1788
  2005.2359  2006.9812  2006.9812  2008.7264  2008.7264  2010.4716
  2010.4716  2012.2169  2012.2169  2013.9621  2013.9621  2015.7074
  2015.7074  2017.4526  2017.4526  2019.1978  2019.1978  2020.9431
  2020.9431  2022.6883  2022.6883  2024.4336  2024.4336  2026.1788
  2006.1086  2007.8538  2007.8538  2009.5991  2009.5991  2011.3443
  2011.3443  2013.0895  2013.0895  2014.8348  2014.8348  2016.5800
  2016.5800  2018.3253  2018.3253  2020.0705  2020.0705  2021.8157
  2021.8157  2023.5610  2023.5610  2025.3062  2025.3062  2027.0515
  2006.1086  2007.8538  2007.8538  2009.5991  2009.5991  2011.3443
  2011.3443  2013.0895  2013.0895  2014.8348  2014.8348  2016.5800
  2016.5800  2018.3253  2018.3253  2020.0705  2020.0705  2021.8157
  2021.8157  2023.5610  2023.5610  2025.3062  2025.3062  2027.0515
  2006.9812  2008.7265  2008.7265  2010.4717  2010.4717  2012.2170
  2012.2170  2013.9622  2013.9622  2015.7074  2015.7074  2017.4527
  2017.4527  2019.1979  2019.1979  2020.9432  2020.9432  2022.6884
  2022.6884  2024.4336  2024.4336  2026.1789  2026.1789  2027.9241
  2006.9812  2008.7265  2008.7265  2010.4717  2010.4717  2012.2170
  2012.2170  2013.9622  2013.9622  2015.7074  2015.7074  2017.4527
  2017.4527  2019.1979  2019.1979  2020.9432  2020.9432  2022.6884
  2022.6884  2024.4336  2024.4336  2026.1789  2026.1789  2027.9241
  2007.8539  2009.5991  2009.5991  2011.3444  2011.3444  2013.0896
  2013.0896  2014.8348  2014.8348  2016.5801  2016.5801  2018.3253
  2018.3253  2020.0706  2020.0706  2021.8158  2021.8158  2023.5610
  2023.5610  2025.3063  2025.3063  2027.0515  2027.0515  2028.7968
  2007.8539  2009.5991  2009.5991  2011.3444  2011.3444  2013.0896
  2013.0896  2014.8348  2014.8348  2016.5801  2016.5801  2018.3253
  2018.3253  2020.0706  2020.0706  2021.8158  2021.8158  2023.5610
  2023.5610  2025.3063  2025.3063  2027.0515  2027.0515  2028.7968
  2008.7265  2010.4718  2010.4718  2012.2170  2012.2170  2013.9623
  2013.9623  2015.7075  2015.7075  2017.4527  2017.4527  2019.1980
  2019.1980  2020.9432  2020.9432  2022.6885  2022.6885  2024.4337
  2024.4337  2026.1789  2026.1789  2027.9242  2027.9242  2029.6694
  2008.7265  2010.4718  2010.4718  2012.2170  2012.2170  2013.9623
  2013.9623  2015.7075  2015.7075  2017.4527  2017.4527  2019.1980
  2019.1980  2020.9432  2020.9432  2022.6885  2022.6885  2024.4337
  2024.4337  2026.1789  2026.1789  2027.9242  2027.9242  2029.6694
  2009.5992  2011.3444  2011.3444  2013.0897  2013.0897  2014.8349
  2014.8349  2016.5802  2016.5802  2018.3254  2018.3254  2020.0706
  2020.0706  2021.8159  2021.8159  2023.5611  2023.5611  2025.3064
  2025.3064  2027.0516  2027.0516  2028.7968  2028.7968  2030.5421
  2009.5992  2011.3444  2011.3444  2013.0897  2013.0897  2014.8349
  2014.8349  2016.5802  2016.5802  2018.3254  2018.3254  2020.0706
  2020.0706  2021.8159  2021.8159  2023.5611  2023.5611  2025.3064
  2025.3064  2027.0516  2027.0516  2028.7968  2028.7968  2030.5421
  2010.4718  2012.2171  2012.2171  2013.9623  2013.9623  2015.7076
  2015.7076  2017.4528  2017.4528  2019.1980  2019.1980  2020.9433
  2020.9433  2022.6885  2022.6885  2024.4338  2024.4338  2026.1790
  2026.1790  2027.9242  2027.9242  2029.6695  2029.6695  2031.4147
  2002.4995  2004.2448  2004.2448  2005.9900  2005.9900  2007.7352
  2007.7352  2009.4805  2009.4805  2011.2257  2011.2257  2012.9710
  2012.9710  2014.7162  2014.7162  2016.4614  2016.4614  2018.2067
  2018.2067  2019.9519  2019.9519  2021.6972  2021.6972  2023.4424
  2003.3722  2005.1174  2005.1174  2006.8627  2006.8627  2008.6079
  2008.6079  2010.3531  2010.3531  2012.0984  2012.0984  2013.8436
  2013.8436  2015.5889  2015.5889  2017.3341  2017.3341  2019.0793
  2019.0793  2020.8246  2020.8246  2022.5698  2022.5698  2024.3151
  2003.3722  2005.1174  2005.1174  2006.8627  2006.8627  2008.6079
  2008.6079  2010.3531  2010.3531  2012.0984  2012.0984  2013.8436
  2013.8436  2015.5889  2015.5889  2017.3341  2017.3341  2019.0793
  2019.0793  2020.8246  2020.8246  2022.5698  2022.5698  2024.3151
  2004.2448  2005.9901  2005.9901  2007.7353  2007.7353  2009.4806
  2009.4806  2011.2258  2011.2258  2012.9710  2012.9710  2014.7163
  2014.7163  2016.4615  2016.4615  2018.2068  2018.2068  2019.9520
  2019.9520  2021.6972  2021.6972  2023.4425  2023.4425  2025.1877
  2004.2448  2005.9901  2005.9901  2007.7353  2007.7353  2009.4806
  2009.4806  2011.2258  2011.2258  2012.9710  2012.9710  2014.7163
  2014.7163  2016.4615  2016.4615  2018.2068  2018.2068  2019.9520
  2019.9520  2021.6972  2021.6972  2023.4425  2023.4425  2025.1877
  2005.1175  2006.8627  2006.8627  2008.6080  2008.6080  2010.3532
  2010.3532  2012.0984  2012.0984  2013.8437  2013.8437  2015.5889
  2015.5889  2017.3342  2017.3342  2019.0794  2019.0794  2020.8247
  2020.8247  2022.5699  2022.5699  2024.3151  2024.3151  2026.0604
  2005.1175  2006.8627  2006.8627  2008.6080  2008.6080  2010.3532
  2010.3532  2012.0984  2012.0984  2013.8437  2013.8437  2015.5889
  2015.5889  2017.3342  2017.3342  2019.0794  2019.0794  2020.8247
  2020.8247  2022.5699  2022.5699  2024.3151  2024.3151  2026.0604
  2005.9901  2007.7354  2007.7354  2009.4806  2009.4806  2011.2259
  2011.2259  2012.9711  2012.9711  2014.7163  2014.7163  2016.4616
  2016.4616  2018.2068  2018.2068  2019.9521  2019.9521  2021.6973
  2021.6973  2023.4425  2023.4425  2025.1878  2025.1878  2026.9330
  2005.9901  2007.7354  2007.7354  2009.4806  2009.4806  2011.2259
  2011.2259  2012.9711  2012.9711  2014.7163  2014.7163  2016.4616
  2016.4616  2018.2068  2018.2068  2019.9521  2019.9521  2021.6973
  2021.6973  2023.4425  2023.4425  2025.1878  2025.1878  2026.9330
  2006.8628  2008.6080  2008.6080  2010.3533  2010.3533  2012.0985
  2012.0985  2013.8438  2013.8438  2015.5890  2015.5890  2017.3342
  2017.3342  2019.0795  2019.0795  2020.8247  2020.8247  2022.5700
  2022.5700  2024.3152  2024.3152  2026.0604  2026.0604  2027.8057
  2006.8628  2008.6080  2008.6080  2010.3533  2010.3533  2012.0985
  2012.0985  2013.8438  2013.8438  2015.5890  2015.5890  2017.3342
  2017.3342  2019.0795  2019.0795  2020.8247  2020.8247  2022.5700
  2022.5700  2024.3152  2024.3152  2026.0604  2026.0604  2027.8057
  2007.7354  2009.4807  2009.4807  2011.2259  2011.2259  2012.9712
  2012.9712  2014.7164  2014.7164  2016.4616  2016.4616  2018.2069
  2018.2069  2019.9521  2019.9521  2021.6974  2021.6974  2023.4426
  2023.4426  2025.1879  2025.1879  2026.9331  2026.9331  2028.6783
  2007.7354  2009.4807  2009.4807  2011.2259  2011.2259  2012.9712
  2012.9712  2014.7164  2014.7164  2016.4616  2016.4616  2018.2069
  2018.2069  2019.9521  2019.9521  2021.6974  2021.6974  2023.4426
  2023.4426  2025.1879  2025.1879  2026.9331  2026.9331  2028.6783
  2008.6081  2010.3533  2010.3533  2012.0986  2012.0986  2013.8438
  2013.8438  2015.5891  2015.5891  2017.3343  2017.3343  2019.0795
  2019.0795  2020.8248  2020.8248  2022.5700  2022.5700  2024.3153
  2024.3153  2026.0605  2026.0605  2027.8057  2027.8057  2029.5510
  2008.6081  2010.3533  2010.3533  2012.0986  2012.0986  2013.8438
  2013.8438  2015.5891  2015.5891  2017.3343  2017.3343  2019.0795
  2019.0795  2020.8248  2020.8248  2022.5700  2022.5700  2024.3153
  2024.3153  2026.0605  2026.0605  2027.8057  2027.8057  2029.5510
  2009.4808  2011.2260  2011.2260  2012.9712  2012.9712  2014.7165
  2014.7165  2016.4617  2016.4617  2018.2070  2018.2070  2019.9522
  2019.9522  2021.6974  2021.6974  2023.4427  2023.4427  2025.1879
  2025.1879  2026.9332  2026.9332  2028.6784  2028.6784  2030.4236
  2009.4808  2011.2260  2011.2260  2012.9712  2012.9712  2014.7165
  2014.7165  2016.4617  2016.4617  2018.2070  2018.2070  2019.9522
  2019.9522  2021.6974  2021.6974  2023.4427  2023.4427  2025.1879
  2025.1879  2026.9332  2026.9332  2028.6784  2028.6784  2030.4236
  2010.3534  2012.0986  2012.0986  2013.8439  2013.8439  2015.5891
  2015.5891  2017.3344  2017.3344  2019.0796  2019.0796  2020.8248
  2020.8248  2022.5701  2022.5701  2024.3153  2024.3153  2026.0606
  2026.0606  2027.8058  2027.8058  2029.5511  2029.5511  2031.2963
  2010.3534  2012.0986  2012.0986  2013.8439  2013.8439  2015.5891
  2015.5891  2017.3344  2017.3344  2019.0796  2019.0796  2020.8248
  2020.8248  2022.5701  2022.5701  2024.3153  2024.3153  2026.0606
  2026.0606  2027.8058  2027.8058  2029.5511  2029.5511  2031.2963
  2011.2261  2012.9713  2012.9713  2014.7165  2014.7165  2016.4618
  2016.4618  2018.2070  2018.2070  2019.9523  2019.9523  2021.6975
  2021.6975  2023.4427  2023.4427  2025.1880  2025.1880  2026.9332
  2026.9332  2028.6785  2028.6785  2030.4237  2030.4237  2032.1689
  2011.2261  2012.9713  2012.9713  2014.7165  2014.7165  2016.4618
  2016.4618  2018.2070  2018.2070  2019.9523  2019.9523  2021.6975
  2021.6975  2023.4427  2023.4427  2025.1880  2025.1880  2026.9332
  2026.9332  2028.6785  2028.6785  2030.4237  2030.4237  2032.1689
  2012.0987  2013.8440  2013.8440  2015.5892  2015.5892  2017.3344
  2017.3344  2019.0797  2019.0797  2020.8249  2020.8249  2022.5702
  2022.5702  2024.3154  2024.3154  2026.0606  2026.0606  2027.8059
  2027.8059  2029.5511  2029.5511  2031.2964  2031.2964  2033.0416
  2012.0987  2013.8440  2013.8440  2015.5892  2015.5892  2017.3344
  2017.3344  2019.0797  2019.0797  2020.8249  2020.8249  2022.5702
  2022.5702  2024.3154  2024.3154  2026.0606  2026.0606  2027.8059
  2027.8059  2029.5511  2029.5511  2031.2964  2031.2964  2033.0416
  2012.9714  2014.7166  2014.7166  2016.4618  2016.4618  2018.2071
  2018.2071  2019.9523  2019.9523  2021.6976  2021.6976  2023.4428
  2023.4428  2025.1881  2025.1881  2026.9333  2026.9333  2028.6785
  2028.6785  2030.4238  2030.4238  2032.1690  2032.1690  2033.9143
  2002.4995  2004.2448  2004.2448  2005.9900  2005.9900  2007.7352
  2007.7352  2009.4805  2009.4805  2011.2257  2011.2257  2012.9710
  2012.9710  2014.7162  2014.7162  2016.4614  2016.4614  2018.2067
  2018.2067  2019.9519  2019.9519  2021.6972  2021.6972  2023.4424
  2003.3722  2005.1174  2005.1174  2006.8627  2006.8627  2008.6079
  2008.6079  2010.3531  2010.3531  2012.0984  2012.0984  2013.8436
  2013.8436  2015.5889  2015.5889  2017.3341  2017.3341  2019.0793
  2019.0793  2020.8246  2020.8246  2022.5698  2022.5698  2024.3151
  2003.3722  2005.1174  2005.1174  2006.8627  2006.8627  2008.6079
  2008.6079  2010.3531  2010.3531  2012.0984  2012.0984  2013.8436
  2013.8436  2015.5889  2015.5889  2017.3341  2017.3341  2019.0793
  2019.0793  2020.8246  2020.8246  2022.5698  2022.5698  2024.3151
  2004.2448  2005.9901  2005.9901  2007.7353  2007.7353  2009.4806
  2009.4806  2011.2258  2011.2258  2012.9710  2012.9710  2014.7163
  2014.7163  2016.4615  2016.4615  2018.2068  2018.2068  2019.9520
  2019.9520  2021.6972  2021.6972  2023.4425  2023.4425  2025.1877
  2004.2448  2005.9901  2005.9901  2007.7353  2007.7353  2009.4806
  2009.4806  2011.2258  2011.2258  2012.9710  2012.9710  2014.7163
  2014.7163  2016.4615  2016.4615  2018.2068  2018.2068  2019.9520
  2019.9520  2021.6972  2021.6972  2023.4425  2023.4425  2025.1877
  2005.1175  2006.8627  2006.8627  2008.6080  2008.6080  2010.3532
  2010.3532  2012.0984  2012.0984  2013.8437  2013.8437  2015.5889
  2015.5889  2017.3342  2017.3342  2019.0794  2019.0794  2020.8247
  2020.8247  2022.5699  2022.5699  2024.3151  2024.3151  2026.0604
  2005.1175  2006.8627  2006.8627  2008.6080  2008.6080  2010.3532
  2010.3532  2012.0984  2012.0984  2013.8437  2013.8437  2015.5889
  2015.5889  2017.3342  2017.3342  2019.0794  2019.0794  2020.8247
  2020.8247  2022.5699  2022.5699  2024.3151  2024.3151  2026.0604
  2005.9901  2007.7354  2007.7354  2009.4806  2009.4806  2011.2259
  2011.2259  2012.9711  2012.9711  2014.7163  2014.7163  2016.4616
  2016.4616  2018.2068  2018.2068  2019.9521  2019.9521  2021.6973
  2021.6973  2023.4425  2023.4425  2025.1878  2025.1878  2026.9330
  2005.9901  2007.7354  2007.7354  2009.4806  2009.4806  2011.2259
  2011.2259  2012.9711  2012.9711  2014.7163  2014.7163  2016.4616
  2016.4616  2018.2068  2018.2068  2019.9521  2019.9521  2021.6973
  2021.6973  2023.4425  2023.4425  2025.1878  2025.1878  2026.9330
  2006.8628  2008.6080  2008.6080  2010.3533  2010.3533  2012.0985
  2012.0985  2013.8438  2013.8438  2015.5890  2015.5890  2017.3342
  2017.3342  2019.0795  2019.0795  2020.8247  2020.8247  2022.5700
  2022.5700  2024.3152  2024.3152  2026.0604  2026.0604  2027.8057
  2006.8628  2008.6080  2008.6080  2010.3533  2010.3533  2012.0985
  2012.0985  2013.8438  2013.8438  2015.5890  2015.5890  2017.3342
  2017.3342  2019.0795  2019.0795  2020.8247  2020.8247  2022.5700
  2022.5700  2024.3152  2024.3152  2026.0604  2026.0604  2027.8057
  2007.7354  2009.4807  2009.4807  2011.2259  2011.2259  2012.9712
  2012.9712  2014.7164  2014.7164  2016.4616  2016.4616  2018.2069
  2018.2069  2019.9521  2019.9521  2021.6974  2021.6974  2023.4426
  2023.4426  2025.1879  2025.1879  2026.9331  2026.9331  2028.6783
  2007.7354  2009.4807  2009.4807  2011.2259  2011.2259  2012.9712
  2012.9712  2014.7164  2014.7164  2016.4616  2016.4616  2018.2069
  2018.2069  2019.9521  2019.9521  2021.6974  2021.6974  2023.4426
  2023.4426  2025.1879  2025.1879  2026.9331  2026.9331  2028.6783
  2008.6081  2010.3533  2010.3533  2012.0986  2012.0986  2013.8438
  2013.8438  2015.5891  2015.5891  2017.3343  2017.3343  2019.0795
  2019.0795  2020.8248  2020.8248  2022.5700  2022.5700  2024.3153
  2024.3153  2026.0605  2026.0605  2027.8057  2027.8057  2029.5510
  2008.6081  2010.3533  2010.3533  2012.0986  2012.0986  2013.8438
  2013.8438  2015.5891  2015.5891  2017.3343  2017.3343  2019.0795
  2019.0795  2020.8248  2020.8248  2022.5700  2022.5700  2024.3153
  2024.3153  2026.0605  2026.0605  2027.8057  2027.8057  2029.5510
  2009.4808  2011.2260  2011.2260  2012.9712  2012.9712  2014.7165
  2014.7165  2016.4617  2016.4617  2018.2070  2018.2070  2019.9522
  2019.9522  2021.6974  2021.6974  2023.4427  2023.4427  2025.1879
  2025.1879  2026.9332  2026.9332  2028.6784  2028.6784  2030.4236
  2009.4808  2011.2260  2011.2260  2012.9712  2012.9712  2014.7165
  2014.7165  2016.4617  2016.4617  2018.2070  2018.2070  2019.9522
  2019.9522  2021.6974  2021.6974  2023.4427  2023.4427  2025.1879
  2025.1879  2026.9332  2026.9332  2028.6784  2028.6784  2030.4236
  2010.3534  2012.0986  2012.0986  2013.8439  2013.8439  2015.5891
  2015.5891  2017.3344  2017.3344  2019.0796  2019.0796  2020.8248
  2020.8248  2022.5701  2022.5701  2024.3153  2024.3153  2026.0606
  2026.0606  2027.8058  2027.8058  2029.5511  2029.5511  2031.2963
  2010.3534  2012.0986  2012.0986  2013.8439  2013.8439  2015.5891
  2015.5891  2017.3344  2017.3344  2019.0796  2019.0796  2020.8248
  2020.8248  2022.5701  2022.5701  2024.3153  2024.3153  2026.0606
  2026.0606  2027.8058  2027.8058  2029.5511  2029.5511  2031.2963
  2011.2261  2012.9713  2012.9713  2014.7165  2014.7165  2016.4618
  2016.4618  2018.2070  2018.2070  2019.9523  2019.9523  2021.6975
  2021.6975  2023.4427  2023.4427  2025.1880  2025.1880  2026.9332
  2026.9332  2028.6785  2028.6785  2030.4237  2030.4237  2032.1689
  2011.2261  2012.9713  2012.9713  2014.7165  2014.7165  2016.4618