-- This include file is made available under the Open Database
-- License: http://opendatacommons.org/licenses/odbl/1.0/. Any rights in
-- individual contents of the database are licensed under the Database Contents
-- License: http://opendatacommons.org/licenses/dbcl/1.0/

-- Copyright (C) 2018 Equinor

-- This is an include file used by test case TEST_WSEGVALV

SPECGRID
 12 5 10 1 F / 

COORD
  2000.0000  2000.0000  1200.0000   1999.9127  2000.0000  1249.9924 
  2099.9848  2000.0000  1201.7452   2099.8975  2000.0000  1251.7376 
  2199.9695  2000.0000  1203.4905   2199.8823  2000.0000  1253.4829 
  2299.9543  2000.0000  1205.2357   2299.8670  2000.0000  1255.2281 
  2399.9391  2000.0000  1206.9810   2399.8518  2000.0000  1256.9733 
  2499.9238  2000.0000  1208.7262   2499.8366  2000.0000  1258.7186 
  2599.9086  2000.0000  1210.4714   2599.8214  2000.0000  1260.4638 
  2699.8934  2000.0000  1212.2167   2699.8061  2000.0000  1262.2091 
  2799.8782  2000.0000  1213.9619   2799.7909  2000.0000  1263.9543 
  2899.8629  2000.0000  1215.7072   2899.7757  2000.0000  1265.6996 
  2999.8477  2000.0000  1217.4524   2999.7604  2000.0000  1267.4448 
  3099.8325  2000.0000  1219.1976   3099.7452  2000.0000  1269.1900 
  3199.8172  2000.0000  1220.9429   3199.7300  2000.0000  1270.9353 
  2000.0000  2100.0000  1200.0000   1999.9127  2100.0000  1249.9924 
  2099.9848  2100.0000  1201.7452   2099.8975  2100.0000  1251.7376 
  2199.9695  2100.0000  1203.4905   2199.8823  2100.0000  1253.4829 
  2299.9543  2100.0000  1205.2357   2299.8670  2100.0000  1255.2281 
  2399.9391  2100.0000  1206.9810   2399.8518  2100.0000  1256.9733 
  2499.9238  2100.0000  1208.7262   2499.8366  2100.0000  1258.7186 
  2599.9086  2100.0000  1210.4714   2599.8214  2100.0000  1260.4638 
  2699.8934  2100.0000  1212.2167   2699.8061  2100.0000  1262.2091 
  2799.8782  2100.0000  1213.9619   2799.7909  2100.0000  1263.9543 
  2899.8629  2100.0000  1215.7072   2899.7757  2100.0000  1265.6996 
  2999.8477  2100.0000  1217.4524   2999.7604  2100.0000  1267.4448 
  3099.8325  2100.0000  1219.1976   3099.7452  2100.0000  1269.1900 
  3199.8172  2100.0000  1220.9429   3199.7300  2100.0000  1270.9353 
  2000.0000  2200.0000  1200.0000   1999.9127  2200.0000  1249.9924 
  2099.9848  2200.0000  1201.7452   2099.8975  2200.0000  1251.7376 
  2199.9695  2200.0000  1203.4905   2199.8823  2200.0000  1253.4829 
  2299.9543  2200.0000  1205.2357   2299.8670  2200.0000  1255.2281 
  2399.9391  2200.0000  1206.9810   2399.8518  2200.0000  1256.9733 
  2499.9238  2200.0000  1208.7262   2499.8366  2200.0000  1258.7186 
  2599.9086  2200.0000  1210.4714   2599.8214  2200.0000  1260.4638 
  2699.8934  2200.0000  1212.2167   2699.8061  2200.0000  1262.2091 
  2799.8782  2200.0000  1213.9619   2799.7909  2200.0000  1263.9543 
  2899.8629  2200.0000  1215.7072   2899.7757  2200.0000  1265.6996 
  2999.8477  2200.0000  1217.4524   2999.7604  2200.0000  1267.4448 
  3099.8325  2200.0000  1219.1976   3099.7452  2200.0000  1269.1900 
  3199.8172  2200.0000  1220.9429   3199.7300  2200.0000  1270.9353 
  2000.0000  2300.0000  1200.0000   1999.9127  2300.0000  1249.9924 
  2099.9848  2300.0000  1201.7452   2099.8975  2300.0000  1251.7376 
  2199.9695  2300.0000  1203.4905   2199.8823  2300.0000  1253.4829 
  2299.9543  2300.0000  1205.2357   2299.8670  2300.0000  1255.2281 
  2399.9391  2300.0000  1206.9810   2399.8518  2300.0000  1256.9733 
  2499.9238  2300.0000  1208.7262   2499.8366  2300.0000  1258.7186 
  2599.9086  2300.0000  1210.4714   2599.8214  2300.0000  1260.4638 
  2699.8934  2300.0000  1212.2167   2699.8061  2300.0000  1262.2091 
  2799.8782  2300.0000  1213.9619   2799.7909  2300.0000  1263.9543 
  2899.8629  2300.0000  1215.7072   2899.7757  2300.0000  1265.6996 
  2999.8477  2300.0000  1217.4524   2999.7604  2300.0000  1267.4448 
  3099.8325  2300.0000  1219.1976   3099.7452  2300.0000  1269.1900 
  3199.8172  2300.0000  1220.9429   3199.7300  2300.0000  1270.9353 
  2000.0000  2400.0000  1200.0000   1999.9127  2400.0000  1249.9924 
  2099.9848  2400.0000  1201.7452   2099.8975  2400.0000  1251.7376 
  2199.9695  2400.0000  1203.4905   2199.8823  2400.0000  1253.4829 
  2299.9543  2400.0000  1205.2357   2299.8670  2400.0000  1255.2281 
  2399.9391  2400.0000  1206.9810   2399.8518  2400.0000  1256.9733 
  2499.9238  2400.0000  1208.7262   2499.8366  2400.0000  1258.7186 
  2599.9086  2400.0000  1210.4714   2599.8214  2400.0000  1260.4638 
  2699.8934  2400.0000  1212.2167   2699.8061  2400.0000  1262.2091 
  2799.8782  2400.0000  1213.9619   2799.7909  2400.0000  1263.9543 
  2899.8629  2400.0000  1215.7072   2899.7757  2400.0000  1265.6996 
  2999.8477  2400.0000  1217.4524   2999.7604  2400.0000  1267.4448 
  3099.8325  2400.0000  1219.1976   3099.7452  2400.0000  1269.1900 
  3199.8172  2400.0000  1220.9429   3199.7300  2400.0000  1270.9353 
  2000.0000  2500.0000  1200.0000   1999.9127  2500.0000  1249.9924 
  2099.9848  2500.0000  1201.7452   2099.8975  2500.0000  1251.7376 
  2199.9695  2500.0000  1203.4905   2199.8823  2500.0000  1253.4829 
  2299.9543  2500.0000  1205.2357   2299.8670  2500.0000  1255.2281 
  2399.9391  2500.0000  1206.9810   2399.8518  2500.0000  1256.9733 
  2499.9238  2500.0000  1208.7262   2499.8366  2500.0000  1258.7186 
  2599.9086  2500.0000  1210.4714   2599.8214  2500.0000  1260.4638 
  2699.8934  2500.0000  1212.2167   2699.8061  2500.0000  1262.2091 
  2799.8782  2500.0000  1213.9619   2799.7909  2500.0000  1263.9543 
  2899.8629  2500.0000  1215.7072   2899.7757  2500.0000  1265.6996 
  2999.8477  2500.0000  1217.4524   2999.7604  2500.0000  1267.4448 
  3099.8325  2500.0000  1219.1976   3099.7452  2500.0000  1269.1900 
  3199.8172  2500.0000  1220.9429   3199.7300  2500.0000  1270.9353 
/ 

ZCORN
  1200.0000  1201.7452  1201.7452  1203.4905  1203.4905  1205.2357
  1205.2357  1206.9810  1206.9810  1208.7262  1208.7262  1210.4714
  1210.4714  1212.2167  1212.2167  1213.9619  1213.9619  1215.7072
  1215.7072  1217.4524  1217.4524  1219.1976  1219.1976  1220.9429
  1200.0000  1201.7452  1201.7452  1203.4905  1203.4905  1205.2357
  1205.2357  1206.9810  1206.9810  1208.7262  1208.7262  1210.4714
  1210.4714  1212.2167  1212.2167  1213.9619  1213.9619  1215.7072
  1215.7072  1217.4524  1217.4524  1219.1976  1219.1976  1220.9429
  1200.0000  1201.7452  1201.7452  1203.4905  1203.4905  1205.2357
  1205.2357  1206.9810  1206.9810  1208.7262  1208.7262  1210.4714
  1210.4714  1212.2167  1212.2167  1213.9619  1213.9619  1215.7072
  1215.7072  1217.4524  1217.4524  1219.1976  1219.1976  1220.9429
  1200.0000  1201.7452  1201.7452  1203.4905  1203.4905  1205.2357
  1205.2357  1206.9810  1206.9810  1208.7262  1208.7262  1210.4714
  1210.4714  1212.2167  1212.2167  1213.9619  1213.9619  1215.7072
  1215.7072  1217.4524  1217.4524  1219.1976  1219.1976  1220.9429
  1200.0000  1201.7452  1201.7452  1203.4905  1203.4905  1205.2357
  1205.2357  1206.9810  1206.9810  1208.7262  1208.7262  1210.4714
  1210.4714  1212.2167  1212.2167  1213.9619  1213.9619  1215.7072
  1215.7072  1217.4524  1217.4524  1219.1976  1219.1976  1220.9429
  1200.0000  1201.7452  1201.7452  1203.4905  1203.4905  1205.2357
  1205.2357  1206.9810  1206.9810  1208.7262  1208.7262  1210.4714
  1210.4714  1212.2167  1212.2167  1213.9619  1213.9619  1215.7072
  1215.7072  1217.4524  1217.4524  1219.1976  1219.1976  1220.9429
  1200.0000  1201.7452  1201.7452  1203.4905  1203.4905  1205.2357
  1205.2357  1206.9810  1206.9810  1208.7262  1208.7262  1210.4714
  1210.4714  1212.2167  1212.2167  1213.9619  1213.9619  1215.7072
  1215.7072  1217.4524  1217.4524  1219.1976  1219.1976  1220.9429
  1200.0000  1201.7452  1201.7452  1203.4905  1203.4905  1205.2357
  1205.2357  1206.9810  1206.9810  1208.7262  1208.7262  1210.4714
  1210.4714  1212.2167  1212.2167  1213.9619  1213.9619  1215.7072
  1215.7072  1217.4524  1217.4524  1219.1976  1219.1976  1220.9429
  1200.0000  1201.7452  1201.7452  1203.4905  1203.4905  1205.2357
  1205.2357  1206.9810  1206.9810  1208.7262  1208.7262  1210.4714
  1210.4714  1212.2167  1212.2167  1213.9619  1213.9619  1215.7072
  1215.7072  1217.4524  1217.4524  1219.1976  1219.1976  1220.9429
  1200.0000  1201.7452  1201.7452  1203.4905  1203.4905  1205.2357
  1205.2357  1206.9810  1206.9810  1208.7262  1208.7262  1210.4714
  1210.4714  1212.2167  1212.2167  1213.9619  1213.9619  1215.7072
  1215.7072  1217.4524  1217.4524  1219.1976  1219.1976  1220.9429
  1204.9992  1206.7445  1206.7445  1208.4897  1208.4897  1210.2350
  1210.2350  1211.9802  1211.9802  1213.7254  1213.7254  1215.4707
  1215.4707  1217.2159  1217.2159  1218.9612  1218.9612  1220.7064
  1220.7064  1222.4516  1222.4516  1224.1969  1224.1969  1225.9421
  1204.9992  1206.7445  1206.7445  1208.4897  1208.4897  1210.2350
  1210.2350  1211.9802  1211.9802  1213.7254  1213.7254  1215.4707
  1215.4707  1217.2159  1217.2159  1218.9612  1218.9612  1220.7064
  1220.7064  1222.4516  1222.4516  1224.1969  1224.1969  1225.9421
  1204.9992  1206.7445  1206.7445  1208.4897  1208.4897  1210.2350
  1210.2350  1211.9802  1211.9802  1213.7254  1213.7254  1215.4707
  1215.4707  1217.2159  1217.2159  1218.9612  1218.9612  1220.7064
  1220.7064  1222.4516  1222.4516  1224.1969  1224.1969  1225.9421
  1204.9992  1206.7445  1206.7445  1208.4897  1208.4897  1210.2350
  1210.2350  1211.9802  1211.9802  1213.7254  1213.7254  1215.4707
  1215.4707  1217.2159  1217.2159  1218.9612  1218.9612  1220.7064
  1220.7064  1222.4516  1222.4516  1224.1969  1224.1969  1225.9421
  1204.9992  1206.7445  1206.7445  1208.4897  1208.4897  1210.2350
  1210.2350  1211.9802  1211.9802  1213.7254  1213.7254  1215.4707
  1215.4707  1217.2159  1217.2159  1218.9612  1218.9612  1220.7064
  1220.7064  1222.4516  1222.4516  1224.1969  1224.1969  1225.9421
  1204.9992  1206.7445  1206.7445  1208.4897  1208.4897  1210.2350
  1210.2350  1211.9802  1211.9802  1213.7254  1213.7254  1215.4707
  1215.4707  1217.2159  1217.2159  1218.9612  1218.9612  1220.7064
  1220.7064  1222.4516  1222.4516  1224.1969  1224.1969  1225.9421
  1204.9992  1206.7445  1206.7445  1208.4897  1208.4897  1210.2350
  1210.2350  1211.9802  1211.9802  1213.7254  1213.7254  1215.4707
  1215.4707  1217.2159  1217.2159  1218.9612  1218.9612  1220.7064
  1220.7064  1222.4516  1222.4516  1224.1969  1224.1969  1225.9421
  1204.9992  1206.7445  1206.7445  1208.4897  1208.4897  1210.2350
  1210.2350  1211.9802  1211.9802  1213.7254  1213.7254  1215.4707
  1215.4707  1217.2159  1217.2159  1218.9612  1218.9612  1220.7064
  1220.7064  1222.4516  1222.4516  1224.1969  1224.1969  1225.9421
  1204.9992  1206.7445  1206.7445  1208.4897  1208.4897  1210.2350
  1210.2350  1211.9802  1211.9802  1213.7254  1213.7254  1215.4707
  1215.4707  1217.2159  1217.2159  1218.9612  1218.9612  1220.7064
  1220.7064  1222.4516  1222.4516  1224.1969  1224.1969  1225.9421
  1204.9992  1206.7445  1206.7445  1208.4897  1208.4897  1210.2350
  1210.2350  1211.9802  1211.9802  1213.7254  1213.7254  1215.4707
  1215.4707  1217.2159  1217.2159  1218.9612  1218.9612  1220.7064
  1220.7064  1222.4516  1222.4516  1224.1969  1224.1969  1225.9421
  1204.9992  1206.7445  1206.7445  1208.4897  1208.4897  1210.2350
  1210.2350  1211.9802  1211.9802  1213.7254  1213.7254  1215.4707
  1215.4707  1217.2159  1217.2159  1218.9612  1218.9612  1220.7064
  1220.7064  1222.4516  1222.4516  1224.1969  1224.1969  1225.9421
  1204.9992  1206.7445  1206.7445  1208.4897  1208.4897  1210.2350
  1210.2350  1211.9802  1211.9802  1213.7254  1213.7254  1215.4707
  1215.4707  1217.2159  1217.2159  1218.9612  1218.9612  1220.7064
  1220.7064  1222.4516  1222.4516  1224.1969  1224.1969  1225.9421
  1204.9992  1206.7445  1206.7445  1208.4897  1208.4897  1210.2350
  1210.2350  1211.9802  1211.9802  1213.7254  1213.7254  1215.4707
  1215.4707  1217.2159  1217.2159  1218.9612  1218.9612  1220.7064
  1220.7064  1222.4516  1222.4516  1224.1969  1224.1969  1225.9421
  1204.9992  1206.7445  1206.7445  1208.4897  1208.4897  1210.2350
  1210.2350  1211.9802  1211.9802  1213.7254  1213.7254  1215.4707
  1215.4707  1217.2159  1217.2159  1218.9612  1218.9612  1220.7064
  1220.7064  1222.4516  1222.4516  1224.1969  1224.1969  1225.9421
  1204.9992  1206.7445  1206.7445  1208.4897  1208.4897  1210.2350
  1210.2350  1211.9802  1211.9802  1213.7254  1213.7254  1215.4707
  1215.4707  1217.2159  1217.2159  1218.9612  1218.9612  1220.7064
  1220.7064  1222.4516  1222.4516  1224.1969  1224.1969  1225.9421
  1204.9992  1206.7445  1206.7445  1208.4897  1208.4897  1210.2350
  1210.2350  1211.9802  1211.9802  1213.7254  1213.7254  1215.4707
  1215.4707  1217.2159  1217.2159  1218.9612  1218.9612  1220.7064
  1220.7064  1222.4516  1222.4516  1224.1969  1224.1969  1225.9421
  1204.9992  1206.7445  1206.7445  1208.4897  1208.4897  1210.2350
  1210.2350  1211.9802  1211.9802  1213.7254  1213.7254  1215.4707
  1215.4707  1217.2159  1217.2159  1218.9612  1218.9612  1220.7064
  1220.7064  1222.4516  1222.4516  1224.1969  1224.1969  1225.9421
  1204.9992  1206.7445  1206.7445  1208.4897  1208.4897  1210.2350
  1210.2350  1211.9802  1211.9802  1213.7254  1213.7254  1215.4707
  1215.4707  1217.2159  1217.2159  1218.9612  1218.9612  1220.7064
  1220.7064  1222.4516  1222.4516  1224.1969  1224.1969  1225.9421
  1204.9992  1206.7445  1206.7445  1208.4897  1208.4897  1210.2350
  1210.2350  1211.9802  1211.9802  1213.7254  1213.7254  1215.4707
  1215.4707  1217.2159  1217.2159  1218.9612  1218.9612  1220.7064
  1220.7064  1222.4516  1222.4516  1224.1969  1224.1969  1225.9421
  1204.9992  1206.7445  1206.7445  1208.4897  1208.4897  1210.2350
  1210.2350  1211.9802  1211.9802  1213.7254  1213.7254  1215.4707
  1215.4707  1217.2159  1217.2159  1218.9612  1218.9612  1220.7064
  1220.7064  1222.4516  1222.4516  1224.1969  1224.1969  1225.9421
  1209.9985  1211.7437  1211.7437  1213.4890  1213.4890  1215.2342
  1215.2342  1216.9794  1216.9794  1218.7247  1218.7247  1220.4699
  1220.4699  1222.2152  1222.2152  1223.9604  1223.9604  1225.7056
  1225.7056  1227.4509  1227.4509  1229.1961  1229.1961  1230.9414
  1209.9985  1211.7437  1211.7437  1213.4890  1213.4890  1215.2342
  1215.2342  1216.9794  1216.9794  1218.7247  1218.7247  1220.4699
  1220.4699  1222.2152  1222.2152  1223.9604  1223.9604  1225.7056
  1225.7056  1227.4509  1227.4509  1229.1961  1229.1961  1230.9414
  1209.9985  1211.7437  1211.7437  1213.4890  1213.4890  1215.2342
  1215.2342  1216.9794  1216.9794  1218.7247  1218.7247  1220.4699
  1220.4699  1222.2152  1222.2152  1223.9604  1223.9604  1225.7056
  1225.7056  1227.4509  1227.4509  1229.1961  1229.1961  1230.9414
  1209.9985  1211.7437  1211.7437  1213.4890  1213.4890  1215.2342
  1215.2342  1216.9794  1216.9794  1218.7247  1218.7247  1220.4699
  1220.4699  1222.2152  1222.2152  1223.9604  1223.9604  1225.7056
  1225.7056  1227.4509  1227.4509  1229.1961  1229.1961  1230.9414
  1209.9985  1211.7437  1211.7437  1213.4890  1213.4890  1215.2342
  1215.2342  1216.9794  1216.9794  1218.7247  1218.7247  1220.4699
  1220.4699  1222.2152  1222.2152  1223.9604  1223.9604  1225.7056
  1225.7056  1227.4509  1227.4509  1229.1961  1229.1961  1230.9414
  1209.9985  1211.7437  1211.7437  1213.4890  1213.4890  1215.2342
  1215.2342  1216.9794  1216.9794  1218.7247  1218.7247  1220.4699
  1220.4699  1222.2152  1222.2152  1223.9604  1223.9604  1225.7056
  1225.7056  1227.4509  1227.4509  1229.1961  1229.1961  1230.9414
  1209.9985  1211.7437  1211.7437  1213.4890  1213.4890  1215.2342
  1215.2342  1216.9794  1216.9794  1218.7247  1218.7247  1220.4699
  1220.4699  1222.2152  1222.2152  1223.9604  1223.9604  1225.7056
  1225.7056  1227.4509  1227.4509  1229.1961  1229.1961  1230.9414
  1209.9985  1211.7437  1211.7437  1213.4890  1213.4890  1215.2342
  1215.2342  1216.9794  1216.9794  1218.7247  1218.7247  1220.4699
  1220.4699  1222.2152  1222.2152  1223.9604  1223.9604  1225.7056
  1225.7056  1227.4509  1227.4509  1229.1961  1229.1961  1230.9414
  1209.9985  1211.7437  1211.7437  1213.4890  1213.4890  1215.2342
  1215.2342  1216.9794  1216.9794  1218.7247  1218.7247  1220.4699
  1220.4699  1222.2152  1222.2152  1223.9604  1223.9604  1225.7056
  1225.7056  1227.4509  1227.4509  1229.1961  1229.1961  1230.9414
  1209.9985  1211.7437  1211.7437  1213.4890  1213.4890  1215.2342
  1215.2342  1216.9794  1216.9794  1218.7247  1218.7247  1220.4699
  1220.4699  1222.2152  1222.2152  1223.9604  1223.9604  1225.7056
  1225.7056  1227.4509  1227.4509  1229.1961  1229.1961  1230.9414
  1209.9985  1211.7437  1211.7437  1213.4890  1213.4890  1215.2342
  1215.2342  1216.9794  1216.9794  1218.7247  1218.7247  1220.4699
  1220.4699  1222.2152  1222.2152  1223.9604  1223.9604  1225.7056
  1225.7056  1227.4509  1227.4509  1229.1961  1229.1961  1230.9414
  1209.9985  1211.7437  1211.7437  1213.4890  1213.4890  1215.2342
  1215.2342  1216.9794  1216.9794  1218.7247  1218.7247  1220.4699
  1220.4699  1222.2152  1222.2152  1223.9604  1223.9604  1225.7056
  1225.7056  1227.4509  1227.4509  1229.1961  1229.1961  1230.9414
  1209.9985  1211.7437  1211.7437  1213.4890  1213.4890  1215.2342
  1215.2342  1216.9794  1216.9794  1218.7247  1218.7247  1220.4699
  1220.4699  1222.2152  1222.2152  1223.9604  1223.9604  1225.7056
  1225.7056  1227.4509  1227.4509  1229.1961  1229.1961  1230.9414
  1209.9985  1211.7437  1211.7437  1213.4890  1213.4890  1215.2342
  1215.2342  1216.9794  1216.9794  1218.7247  1218.7247  1220.4699
  1220.4699  1222.2152  1222.2152  1223.9604  1223.9604  1225.7056
  1225.7056  1227.4509  1227.4509  1229.1961  1229.1961  1230.9414
  1209.9985  1211.7437  1211.7437  1213.4890  1213.4890  1215.2342
  1215.2342  1216.9794  1216.9794  1218.7247  1218.7247  1220.4699
  1220.4699  1222.2152  1222.2152  1223.9604  1223.9604  1225.7056
  1225.7056  1227.4509  1227.4509  1229.1961  1229.1961  1230.9414
  1209.9985  1211.7437  1211.7437  1213.4890  1213.4890  1215.2342
  1215.2342  1216.9794  1216.9794  1218.7247  1218.7247  1220.4699
  1220.4699  1222.2152  1222.2152  1223.9604  1223.9604  1225.7056
  1225.7056  1227.4509  1227.4509  1229.1961  1229.1961  1230.9414
  1209.9985  1211.7437  1211.7437  1213.4890  1213.4890  1215.2342
  1215.2342  1216.9794  1216.9794  1218.7247  1218.7247  1220.4699
  1220.4699  1222.2152  1222.2152  1223.9604  1223.9604  1225.7056
  1225.7056  1227.4509  1227.4509  1229.1961  1229.1961  1230.9414
  1209.9985  1211.7437  1211.7437  1213.4890  1213.4890  1215.2342
  1215.2342  1216.9794  1216.9794  1218.7247  1218.7247  1220.4699
  1220.4699  1222.2152  1222.2152  1223.9604  1223.9604  1225.7056
  1225.7056  1227.4509  1227.4509  1229.1961  1229.1961  1230.9414
  1209.9985  1211.7437  1211.7437  1213.4890  1213.4890  1215.2342
  1215.2342  1216.9794  1216.9794  1218.7247  1218.7247  1220.4699
  1220.4699  1222.2152  1222.2152  1223.9604  1223.9604  1225.7056
  1225.7056  1227.4509  1227.4509  1229.1961  1229.1961  1230.9414
  1209.9985  1211.7437  1211.7437  1213.4890  1213.4890  1215.2342
  1215.2342  1216.9794  1216.9794  1218.7247  1218.7247  1220.4699
  1220.4699  1222.2152  1222.2152  1223.9604  1223.9604  1225.7056
  1225.7056  1227.4509  1227.4509  1229.1961  1229.1961  1230.9414
  1214.9977  1216.7430  1216.7430  1218.4882  1218.4882  1220.2334
  1220.2334  1221.9787  1221.9787  1223.7239  1223.7239  1225.4692
  1225.4692  1227.2144  1227.2144  1228.9596  1228.9596  1230.7049
  1230.7049  1232.4501  1232.4501  1234.1954  1234.1954  1235.9406
  1214.9977  1216.7430  1216.7430  1218.4882  1218.4882  1220.2334
  1220.2334  1221.9787  1221.9787  1223.7239  1223.7239  1225.4692
  1225.4692  1227.2144  1227.2144  1228.9596  1228.9596  1230.7049
  1230.7049  1232.4501  1232.4501  1234.1954  1234.1954  1235.9406
  1214.9977  1216.7430  1216.7430  1218.4882  1218.4882  1220.2334
  1220.2334  1221.9787  1221.9787  1223.7239  1223.7239  1225.4692
  1225.4692  1227.2144  1227.2144  1228.9596  1228.9596  1230.7049
  1230.7049  1232.4501  1232.4501  1234.1954  1234.1954  1235.9406
  1214.9977  1216.7430  1216.7430  1218.4882  1218.4882  1220.2334
  1220.2334  1221.9787  1221.9787  1223.7239  1223.7239  1225.4692
  1225.4692  1227.2144  1227.2144  1228.9596  1228.9596  1230.7049
  1230.7049  1232.4501  1232.4501  1234.1954  1234.1954  1235.9406
  1214.9977  1216.7430  1216.7430  1218.4882  1218.4882  1220.2334
  1220.2334  1221.9787  1221.9787  1223.7239  1223.7239  1225.4692
  1225.4692  1227.2144  1227.2144  1228.9596  1228.9596  1230.7049
  1230.7049  1232.4501  1232.4501  1234.1954  1234.1954  1235.9406
  1214.9977  1216.7430  1216.7430  1218.4882  1218.4882  1220.2334
  1220.2334  1221.9787  1221.9787  1223.7239  1223.7239  1225.4692
  1225.4692  1227.2144  1227.2144  1228.9596  1228.9596  1230.7049
  1230.7049  1232.4501  1232.4501  1234.1954  1234.1954  1235.9406
  1214.9977  1216.7430  1216.7430  1218.4882  1218.4882  1220.2334
  1220.2334  1221.9787  1221.9787  1223.7239  1223.7239  1225.4692
  1225.4692  1227.2144  1227.2144  1228.9596  1228.9596  1230.7049
  1230.7049  1232.4501  1232.4501  1234.1954  1234.1954  1235.9406
  1214.9977  1216.7430  1216.7430  1218.4882  1218.4882  1220.2334
  1220.2334  1221.9787  1221.9787  1223.7239  1223.7239  1225.4692
  1225.4692  1227.2144  1227.2144  1228.9596  1228.9596  1230.7049
  1230.7049  1232.4501  1232.4501  1234.1954  1234.1954  1235.9406
  1214.9977  1216.7430  1216.7430  1218.4882  1218.4882  1220.2334
  1220.2334  1221.9787  1221.9787  1223.7239  1223.7239  1225.4692
  1225.4692  1227.2144  1227.2144  1228.9596  1228.9596  1230.7049
  1230.7049  1232.4501  1232.4501  1234.1954  1234.1954  1235.9406
  1214.9977  1216.7430  1216.7430  1218.4882  1218.4882  1220.2334
  1220.2334  1221.9787  1221.9787  1223.7239  1223.7239  1225.4692
  1225.4692  1227.2144  1227.2144  1228.9596  1228.9596  1230.7049
  1230.7049  1232.4501  1232.4501  1234.1954  1234.1954  1235.9406
  1214.9977  1216.7430  1216.7430  1218.4882  1218.4882  1220.2334
  1220.2334  1221.9787  1221.9787  1223.7239  1223.7239  1225.4692
  1225.4692  1227.2144  1227.2144  1228.9596  1228.9596  1230.7049
  1230.7049  1232.4501  1232.4501  1234.1954  1234.1954  1235.9406
  1214.9977  1216.7430  1216.7430  1218.4882  1218.4882  1220.2334
  1220.2334  1221.9787  1221.9787  1223.7239  1223.7239  1225.4692
  1225.4692  1227.2144  1227.2144  1228.9596  1228.9596  1230.7049
  1230.7049  1232.4501  1232.4501  1234.1954  1234.1954  1235.9406
  1214.9977  1216.7430  1216.7430  1218.4882  1218.4882  1220.2334
  1220.2334  1221.9787  1221.9787  1223.7239  1223.7239  1225.4692
  1225.4692  1227.2144  1227.2144  1228.9596  1228.9596  1230.7049
  1230.7049  1232.4501  1232.4501  1234.1954  1234.1954  1235.9406
  1214.9977  1216.7430  1216.7430  1218.4882  1218.4882  1220.2334
  1220.2334  1221.9787  1221.9787  1223.7239  1223.7239  1225.4692
  1225.4692  1227.2144  1227.2144  1228.9596  1228.9596  1230.7049
  1230.7049  1232.4501  1232.4501  1234.1954  1234.1954  1235.9406
  1214.9977  1216.7430  1216.7430  1218.4882  1218.4882  1220.2334
  1220.2334  1221.9787  1221.9787  1223.7239  1223.7239  1225.4692
  1225.4692  1227.2144  1227.2144  1228.9596  1228.9596  1230.7049
  1230.7049  1232.4501  1232.4501  1234.1954  1234.1954  1235.9406
  1214.9977  1216.7430  1216.7430  1218.4882  1218.4882  1220.2334
  1220.2334  1221.9787  1221.9787  1223.7239  1223.7239  1225.4692
  1225.4692  1227.2144  1227.2144  1228.9596  1228.9596  1230.7049
  1230.7049  1232.4501  1232.4501  1234.1954  1234.1954  1235.9406
  1214.9977  1216.7430  1216.7430  1218.4882  1218.4882  1220.2334
  1220.2334  1221.9787  1221.9787  1223.7239  1223.7239  1225.4692
  1225.4692  1227.2144  1227.2144  1228.9596  1228.9596  1230.7049
  1230.7049  1232.4501  1232.4501  1234.1954  1234.1954  1235.9406
  1214.9977  1216.7430  1216.7430  1218.4882  1218.4882  1220.2334
  1220.2334  1221.9787  1221.9787  1223.7239  1223.7239  1225.4692
  1225.4692  1227.2144  1227.2144  1228.9596  1228.9596  1230.7049
  1230.7049  1232.4501  1232.4501  1234.1954  1234.1954  1235.9406
  1214.9977  1216.7430  1216.7430  1218.4882  1218.4882  1220.2334
  1220.2334  1221.9787  1221.9787  1223.7239  1223.7239  1225.4692
  1225.4692  1227.2144  1227.2144  1228.9596  1228.9596  1230.7049
  1230.7049  1232.4501  1232.4501  1234.1954  1234.1954  1235.9406
  1214.9977  1216.7430  1216.7430  1218.4882  1218.4882  1220.2334
  1220.2334  1221.9787  1221.9787  1223.7239  1223.7239  1225.4692
  1225.4692  1227.2144  1227.2144  1228.9596  1228.9596  1230.7049
  1230.7049  1232.4501  1232.4501  1234.1954  1234.1954  1235.9406
  1219.9970  1221.7422  1221.7422  1223.4874  1223.4874  1225.2327
  1225.2327  1226.9779  1226.9779  1228.7232  1228.7232  1230.4684
  1230.4684  1232.2136  1232.2136  1233.9589  1233.9589  1235.7041
  1235.7041  1237.4494  1237.4494  1239.1946  1239.1946  1240.9398
  1219.9970  1221.7422  1221.7422  1223.4874  1223.4874  1225.2327
  1225.2327  1226.9779  1226.9779  1228.7232  1228.7232  1230.4684
  1230.4684  1232.2136  1232.2136  1233.9589  1233.9589  1235.7041
  1235.7041  1237.4494  1237.4494  1239.1946  1239.1946  1240.9398
  1219.9970  1221.7422  1221.7422  1223.4874  1223.4874  1225.2327
  1225.2327  1226.9779  1226.9779  1228.7232  1228.7232  1230.4684
  1230.4684  1232.2136  1232.2136  1233.9589  1233.9589  1235.7041
  1235.7041  1237.4494  1237.4494  1239.1946  1239.1946  1240.9398
  1219.9970  1221.7422  1221.7422  1223.4874  1223.4874  1225.2327
  1225.2327  1226.9779  1226.9779  1228.7232  1228.7232  1230.4684
  1230.4684  1232.2136  1232.2136  1233.9589  1233.9589  1235.7041
  1235.7041  1237.4494  1237.4494  1239.1946  1239.1946  1240.9398
  1219.9970  1221.7422  1221.7422  1223.4874  1223.4874  1225.2327
  1225.2327  1226.9779  1226.9779  1228.7232  1228.7232  1230.4684
  1230.4684  1232.2136  1232.2136  1233.9589  1233.9589  1235.7041
  1235.7041  1237.4494  1237.4494  1239.1946  1239.1946  1240.9398
  1219.9970  1221.7422  1221.7422  1223.4874  1223.4874  1225.2327
  1225.2327  1226.9779  1226.9779  1228.7232  1228.7232  1230.4684
  1230.4684  1232.2136  1232.2136  1233.9589  1233.9589  1235.7041
  1235.7041  1237.4494  1237.4494  1239.1946  1239.1946  1240.9398
  1219.9970  1221.7422  1221.7422  1223.4874  1223.4874  1225.2327
  1225.2327  1226.9779  1226.9779  1228.7232  1228.7232  1230.4684
  1230.4684  1232.2136  1232.2136  1233.9589  1233.9589  1235.7041
  1235.7041  1237.4494  1237.4494  1239.1946  1239.1946  1240.9398
  1219.9970  1221.7422  1221.7422  1223.4874  1223.4874  1225.2327
  1225.2327  1226.9779  1226.9779  1228.7232  1228.7232  1230.4684
  1230.4684  1232.2136  1232.2136  1233.9589  1233.9589  1235.7041
  1235.7041  1237.4494  1237.4494  1239.1946  1239.1946  1240.9398
  1219.9970  1221.7422  1221.7422  1223.4874  1223.4874  1225.2327
  1225.2327  1226.9779  1226.9779  1228.7232  1228.7232  1230.4684
  1230.4684  1232.2136  1232.2136  1233.9589  1233.9589  1235.7041
  1235.7041  1237.4494  1237.4494  1239.1946  1239.1946  1240.9398
  1219.9970  1221.7422  1221.7422  1223.4874  1223.4874  1225.2327
  1225.2327  1226.9779  1226.9779  1228.7232  1228.7232  1230.4684
  1230.4684  1232.2136  1232.2136  1233.9589  1233.9589  1235.7041
  1235.7041  1237.4494  1237.4494  1239.1946  1239.1946  1240.9398
  1219.9970  1221.7422  1221.7422  1223.4874  1223.4874  1225.2327
  1225.2327  1226.9779  1226.9779  1228.7232  1228.7232  1230.4684
  1230.4684  1232.2136  1232.2136  1233.9589  1233.9589  1235.7041
  1235.7041  1237.4494  1237.4494  1239.1946  1239.1946  1240.9398
  1219.9970  1221.7422  1221.7422  1223.4874  1223.4874  1225.2327
  1225.2327  1226.9779  1226.9779  1228.7232  1228.7232  1230.4684
  1230.4684  1232.2136  1232.2136  1233.9589  1233.9589  1235.7041
  1235.7041  1237.4494  1237.4494  1239.1946  1239.1946  1240.9398
  1219.9970  1221.7422  1221.7422  1223.4874  1223.4874  1225.2327
  1225.2327  1226.9779  1226.9779  1228.7232  1228.7232  1230.4684
  1230.4684  1232.2136  1232.2136  1233.9589  1233.9589  1235.7041
  1235.7041  1237.4494  1237.4494  1239.1946  1239.1946  1240.9398
  1219.9970  1221.7422  1221.7422  1223.4874  1223.4874  1225.2327
  1225.2327  1226.9779  1226.9779  1228.7232  1228.7232  1230.4684
  1230.4684  1232.2136  1232.2136  1233.9589  1233.9589  1235.7041
  1235.7041  1237.4494  1237.4494  1239.1946  1239.1946  1240.9398
  1219.9970  1221.7422  1221.7422  1223.4874  1223.4874  1225.2327
  1225.2327  1226.9779  1226.9779  1228.7232  1228.7232  1230.4684
  1230.4684  1232.2136  1232.2136  1233.9589  1233.9589  1235.7041
  1235.7041  1237.4494  1237.4494  1239.1946  1239.1946  1240.9398
  1219.9970  1221.7422  1221.7422  1223.4874  1223.4874  1225.2327
  1225.2327  1226.9779  1226.9779  1228.7232  1228.7232  1230.4684
  1230.4684  1232.2136  1232.2136  1233.9589  1233.9589  1235.7041
  1235.7041  1237.4494  1237.4494  1239.1946  1239.1946  1240.9398
  1219.9970  1221.7422  1221.7422  1223.4874  1223.4874  1225.2327
  1225.2327  1226.9779  1226.9779  1228.7232  1228.7232  1230.4684
  1230.4684  1232.2136  1232.2136  1233.9589  1233.9589  1235.7041
  1235.7041  1237.4494  1237.4494  1239.1946  1239.1946  1240.9398
  1219.9970  1221.7422  1221.7422  1223.4874  1223.4874  1225.2327
  1225.2327  1226.9779  1226.9779  1228.7232  1228.7232  1230.4684
  1230.4684  1232.2136  1232.2136  1233.9589  1233.9589  1235.7041
  1235.7041  1237.4494  1237.4494  1239.1946  1239.1946  1240.9398
  1219.9970  1221.7422  1221.7422  1223.4874  1223.4874  1225.2327
  1225.2327  1226.9779  1226.9779  1228.7232  1228.7232  1230.4684
  1230.4684  1232.2136  1232.2136  1233.9589  1233.9589  1235.7041
  1235.7041  1237.4494  1237.4494  1239.1946  1239.1946  1240.9398
  1219.9970  1221.7422  1221.7422  1223.4874  1223.4874  1225.2327
  1225.2327  1226.9779  1226.9779  1228.7232  1228.7232  1230.4684
  1230.4684  1232.2136  1232.2136  1233.9589  1233.9589  1235.7041
  1235.7041  1237.4494  1237.4494  1239.1946  1239.1946  1240.9398
  1224.9962  1226.7414  1226.7414  1228.4867  1228.4867  1230.2319