-- This reservoir simulation deck is made available under the Open Database
-- License: http://opendatacommons.org/licenses/odbl/1.0/. Any rights in
-- individual contents of the database are licensed under the Database Contents
-- License: http://opendatacommons.org/licenses/dbcl/1.0/

-- Copyright (C) 2024 Equinor


SPECGRID
 12 8 9 1 F / 

COORD
  2000.0000  2000.0000  2000.0000   1999.9302  1999.9651  2032.4938 
  2099.9848  2000.0000  2001.7452   2099.9150  1999.9651  2034.2391 
  2199.9695  2000.0000  2003.4905   2199.8997  1999.9651  2035.9843 
  2299.9543  2000.0000  2005.2357   2299.8845  1999.9651  2037.7295 
  2399.9391  2000.0000  2006.9810   2399.8693  1999.9651  2039.4748 
  2499.9238  2000.0000  2008.7262   2499.8540  1999.9651  2041.2200 
  2599.9086  2000.0000  2010.4714   2599.8388  1999.9651  2042.9653 
  2699.8934  2000.0000  2012.2167   2699.8236  1999.9651  2044.7105 
  2799.8782  2000.0000  2013.9619   2799.8083  1999.9651  2046.4557 
  2899.8629  2000.0000  2015.7072   2899.7931  1999.9651  2048.2010 
  2999.8477  2000.0000  2017.4524   2999.7779  1999.9651  2049.9462 
  3099.8325  2000.0000  2019.1976   3099.7627  1999.9651  2051.6915 
  3199.8172  2000.0000  2020.9429   3199.7474  1999.9651  2053.4367 
  2000.0000  2099.9962  2000.8727   1999.9302  2099.9613  2033.3665 
  2099.9848  2099.9962  2002.6179   2099.9150  2099.9613  2035.1117 
  2199.9695  2099.9962  2004.3631   2199.8997  2099.9613  2036.8569 
  2299.9543  2099.9962  2006.1084   2299.8845  2099.9613  2038.6022 
  2399.9391  2099.9962  2007.8536   2399.8693  2099.9613  2040.3474 
  2499.9238  2099.9962  2009.5989   2499.8540  2099.9613  2042.0927 
  2599.9086  2099.9962  2011.3441   2599.8388  2099.9613  2043.8379 
  2699.8934  2099.9962  2013.0893   2699.8236  2099.9613  2045.5832 
  2799.8782  2099.9962  2014.8346   2799.8083  2099.9613  2047.3284 
  2899.8629  2099.9962  2016.5798   2899.7931  2099.9613  2049.0736 
  2999.8477  2099.9962  2018.3251   2999.7779  2099.9613  2050.8189 
  3099.8325  2099.9962  2020.0703   3099.7627  2099.9613  2052.5641 
  3199.8172  2099.9962  2021.8155   3199.7474  2099.9613  2054.3094 
  2000.0000  2199.9924  2001.7453   1999.9302  2199.9575  2034.2391 
  2099.9848  2199.9924  2003.4905   2099.9150  2199.9575  2035.9844 
  2199.9695  2199.9924  2005.2358   2199.8997  2199.9575  2037.7296 
  2299.9543  2199.9924  2006.9810   2299.8845  2199.9575  2039.4748 
  2399.9391  2199.9924  2008.7263   2399.8693  2199.9575  2041.2201 
  2499.9238  2199.9924  2010.4715   2499.8540  2199.9575  2042.9653 
  2599.9086  2199.9924  2012.2168   2599.8388  2199.9575  2044.7106 
  2699.8934  2199.9924  2013.9620   2699.8236  2199.9575  2046.4558 
  2799.8782  2199.9924  2015.7072   2799.8083  2199.9575  2048.2010 
  2899.8629  2199.9924  2017.4525   2899.7931  2199.9575  2049.9463 
  2999.8477  2199.9924  2019.1977   2999.7779  2199.9575  2051.6915 
  3099.8325  2199.9924  2020.9430   3099.7627  2199.9575  2053.4368 
  3199.8172  2199.9924  2022.6882   3199.7474  2199.9575  2055.1820 
  2000.0000  2299.9886  2002.6180   1999.9302  2299.9537  2035.1118 
  2099.9848  2299.9886  2004.3632   2099.9150  2299.9537  2036.8570 
  2199.9695  2299.9886  2006.1084   2199.8997  2299.9537  2038.6023 
  2299.9543  2299.9886  2007.8537   2299.8845  2299.9537  2040.3475 
  2399.9391  2299.9886  2009.5989   2399.8693  2299.9537  2042.0927 
  2499.9238  2299.9886  2011.3442   2499.8540  2299.9537  2043.8380 
  2599.9086  2299.9886  2013.0894   2599.8388  2299.9537  2045.5832 
  2699.8934  2299.9886  2014.8346   2699.8236  2299.9537  2047.3285 
  2799.8782  2299.9886  2016.5799   2799.8083  2299.9537  2049.0737 
  2899.8629  2299.9886  2018.3251   2899.7931  2299.9537  2050.8189 
  2999.8477  2299.9886  2020.0704   2999.7779  2299.9537  2052.5642 
  3099.8325  2299.9886  2021.8156   3099.7627  2299.9537  2054.3094 
  3199.8172  2299.9886  2023.5608   3199.7474  2299.9537  2056.0547 
  2000.0000  2399.9848  2003.4906   1999.9302  2399.9499  2035.9844 
  2099.9848  2399.9848  2005.2359   2099.9150  2399.9499  2037.7297 
  2199.9695  2399.9848  2006.9811   2199.8997  2399.9499  2039.4749 
  2299.9543  2399.9848  2008.7263   2299.8845  2399.9499  2041.2201 
  2399.9391  2399.9848  2010.4716   2399.8693  2399.9499  2042.9654 
  2499.9238  2399.9848  2012.2168   2499.8540  2399.9499  2044.7106 
  2599.9086  2399.9848  2013.9621   2599.8388  2399.9499  2046.4559 
  2699.8934  2399.9848  2015.7073   2699.8236  2399.9499  2048.2011 
  2799.8782  2399.9848  2017.4525   2799.8083  2399.9499  2049.9464 
  2899.8629  2399.9848  2019.1978   2899.7931  2399.9499  2051.6916 
  2999.8477  2399.9848  2020.9430   2999.7779  2399.9499  2053.4368 
  3099.8325  2399.9848  2022.6883   3099.7627  2399.9499  2055.1821 
  3199.8172  2399.9848  2024.4335   3199.7474  2399.9499  2056.9273 
  2000.0000  2499.9810  2004.3633   1999.9302  2499.9461  2036.8571 
  2099.9848  2499.9810  2006.1085   2099.9150  2499.9461  2038.6023 
  2199.9695  2499.9810  2007.8537   2199.8997  2499.9461  2040.3476 
  2299.9543  2499.9810  2009.5990   2299.8845  2499.9461  2042.0928 
  2399.9391  2499.9810  2011.3442   2399.8693  2499.9461  2043.8380 
  2499.9238  2499.9810  2013.0895   2499.8540  2499.9461  2045.5833 
  2599.9086  2499.9810  2014.8347   2599.8388  2499.9461  2047.3285 
  2699.8934  2499.9810  2016.5800   2699.8236  2499.9461  2049.0738 
  2799.8782  2499.9810  2018.3252   2799.8083  2499.9461  2050.8190 
  2899.8629  2499.9810  2020.0704   2899.7931  2499.9461  2052.5642 
  2999.8477  2499.9810  2021.8157   2999.7779  2499.9461  2054.3095 
  3099.8325  2499.9810  2023.5609   3099.7627  2499.9461  2056.0547 
  3199.8172  2499.9810  2025.3062   3199.7474  2499.9461  2057.8000 
  2000.0000  2599.9772  2005.2359   1999.9302  2599.9422  2037.7297 
  2099.9848  2599.9772  2006.9812   2099.9150  2599.9422  2039.4750 
  2199.9695  2599.9772  2008.7264   2199.8997  2599.9422  2041.2202 
  2299.9543  2599.9772  2010.4716   2299.8845  2599.9422  2042.9655 
  2399.9391  2599.9772  2012.2169   2399.8693  2599.9422  2044.7107 
  2499.9238  2599.9772  2013.9621   2499.8540  2599.9422  2046.4559 
  2599.9086  2599.9772  2015.7074   2599.8388  2599.9422  2048.2012 
  2699.8934  2599.9772  2017.4526   2699.8236  2599.9422  2049.9464 
  2799.8782  2599.9772  2019.1978   2799.8083  2599.9422  2051.6917 
  2899.8629  2599.9772  2020.9431   2899.7931  2599.9422  2053.4369 
  2999.8477  2599.9772  2022.6883   2999.7779  2599.9422  2055.1821 
  3099.8325  2599.9772  2024.4336   3099.7627  2599.9422  2056.9274 
  3199.8172  2599.9772  2026.1788   3199.7474  2599.9422  2058.6726 
  2000.0000  2699.9733  2006.1086   1999.9302  2699.9384  2038.6024 
  2099.9848  2699.9733  2007.8538   2099.9150  2699.9384  2040.3476 
  2199.9695  2699.9733  2009.5991   2199.8997  2699.9384  2042.0929 
  2299.9543  2699.9733  2011.3443   2299.8845  2699.9384  2043.8381 
  2399.9391  2699.9733  2013.0895   2399.8693  2699.9384  2045.5834 
  2499.9238  2699.9733  2014.8348   2499.8540  2699.9384  2047.3286 
  2599.9086  2699.9733  2016.5800   2599.8388  2699.9384  2049.0738 
  2699.8934  2699.9733  2018.3253   2699.8236  2699.9384  2050.8191 
  2799.8782  2699.9733  2020.0705   2799.8083  2699.9384  2052.5643 
  2899.8629  2699.9733  2021.8157   2899.7931  2699.9384  2054.3096 
  2999.8477  2699.9733  2023.5610   2999.7779  2699.9384  2056.0548 
  3099.8325  2699.9733  2025.3062   3099.7627  2699.9384  2057.8000 
  3199.8172  2699.9733  2027.0515   3199.7474  2699.9384  2059.5453 
  2000.0000  2799.9695  2006.9812   1999.9302  2799.9346  2039.4750 
  2099.9848  2799.9695  2008.7265   2099.9150  2799.9346  2041.2203 
  2199.9695  2799.9695  2010.4717   2199.8997  2799.9346  2042.9655 
  2299.9543  2799.9695  2012.2170   2299.8845  2799.9346  2044.7108 
  2399.9391  2799.9695  2013.9622   2399.8693  2799.9346  2046.4560 
  2499.9238  2799.9695  2015.7074   2499.8540  2799.9346  2048.2012 
  2599.9086  2799.9695  2017.4527   2599.8388  2799.9346  2049.9465 
  2699.8934  2799.9695  2019.1979   2699.8236  2799.9346  2051.6917 
  2799.8782  2799.9695  2020.9432   2799.8083  2799.9346  2053.4370 
  2899.8629  2799.9695  2022.6884   2899.7931  2799.9346  2055.1822 
  2999.8477  2799.9695  2024.4336   2999.7779  2799.9346  2056.9274 
  3099.8325  2799.9695  2026.1789   3099.7627  2799.9346  2058.6727 
  3199.8172  2799.9695  2027.9241   3199.7474  2799.9346  2060.4179 
/ 

ZCORN
  2000.0000  2001.7452  2001.7452  2003.4905  2003.4905  2005.2357
  2005.2357  2006.9810  2006.9810  2008.7262  2008.7262  2010.4714
  2010.4714  2012.2167  2012.2167  2013.9619  2013.9619  2015.7072
  2015.7072  2017.4524  2017.4524  2019.1976  2019.1976  2020.9429
  2000.8727  2002.6179  2002.6179  2004.3631  2004.3631  2006.1084
  2006.1084  2007.8536  2007.8536  2009.5989  2009.5989  2011.3441
  2011.3441  2013.0893  2013.0893  2014.8346  2014.8346  2016.5798
  2016.5798  2018.3251  2018.3251  2020.0703  2020.0703  2021.8155
  2000.8727  2002.6179  2002.6179  2004.3631  2004.3631  2006.1084
  2006.1084  2007.8536  2007.8536  2009.5989  2009.5989  2011.3441
  2011.3441  2013.0893  2013.0893  2014.8346  2014.8346  2016.5798
  2016.5798  2018.3251  2018.3251  2020.0703  2020.0703  2021.8155
  2001.7453  2003.4905  2003.4905  2005.2358  2005.2358  2006.9810
  2006.9810  2008.7263  2008.7263  2010.4715  2010.4715  2012.2168
  2012.2168  2013.9620  2013.9620  2015.7072  2015.7072  2017.4525
  2017.4525  2019.1977  2019.1977  2020.9430  2020.9430  2022.6882
  2001.7453  2003.4905  2003.4905  2005.2358  2005.2358  2006.9810
  2006.9810  2008.7263  2008.7263  2010.4715  2010.4715  2012.2168
  2012.2168  2013.9620  2013.9620  2015.7072  2015.7072  2017.4525
  2017.4525  2019.1977  2019.1977  2020.9430  2020.9430  2022.6882
  2002.6180  2004.3632  2004.3632  2006.1084  2006.1084  2007.8537
  2007.8537  2009.5989  2009.5989  2011.3442  2011.3442  2013.0894
  2013.0894  2014.8346  2014.8346  2016.5799  2016.5799  2018.3251
  2018.3251  2020.0704  2020.0704  2021.8156  2021.8156  2023.5608
  2002.6180  2004.3632  2004.3632  2006.1084  2006.1084  2007.8537
  2007.8537  2009.5989  2009.5989  2011.3442  2011.3442  2013.0894
  2013.0894  2014.8346  2014.8346  2016.5799  2016.5799  2018.3251
  2018.3251  2020.0704  2020.0704  2021.8156  2021.8156  2023.5608
  2003.4906  2005.2359  2005.2359  2006.9811  2006.9811  2008.7263
  2008.7263  2010.4716  2010.4716  2012.2168  2012.2168  2013.9621
  2013.9621  2015.7073  2015.7073  2017.4525  2017.4525  2019.1978
  2019.1978  2020.9430  2020.9430  2022.6883  2022.6883  2024.4335
  2003.4906  2005.2359  2005.2359  2006.9811  2006.9811  2008.7263
  2008.7263  2010.4716  2010.4716  2012.2168  2012.2168  2013.9621
  2013.9621  2015.7073  2015.7073  2017.4525  2017.4525  2019.1978
  2019.1978  2020.9430  2020.9430  2022.6883  2022.6883  2024.4335
  2004.3633  2006.1085  2006.1085  2007.8537  2007.8537  2009.5990
  2009.5990  2011.3442  2011.3442  2013.0895  2013.0895  2014.8347
  2014.8347  2016.5800  2016.5800  2018.3252  2018.3252  2020.0704
  2020.0704  2021.8157  2021.8157  2023.5609  2023.5609  2025.3062
  2004.3633  2006.1085  2006.1085  2007.8537  2007.8537  2009.5990
  2009.5990  2011.3442  2011.3442  2013.0895  2013.0895  2014.8347
  2014.8347  2016.5800  2016.5800  2018.3252  2018.3252  2020.0704
  2020.0704  2021.8157  2021.8157  2023.5609  2023.5609  2025.3062
  2005.2359  2006.9812  2006.9812  2008.7264  2008.7264  2010.4716
  2010.4716  2012.2169  2012.2169  2013.9621  2013.9621  2015.7074
  2015.7074  2017.4526  2017.4526  2019.1978  2019.1978  2020.9431
  2020.9431  2022.6883  2022.6883  2024.4336  2024.4336  2026.1788
  2005.2359  2006.9812  2006.9812  2008.7264  2008.7264  2010.4716
  2010.4716  2012.2169  2012.2169  2013.9621  2013.9621  2015.7074
  2015.7074  2017.4526  2017.4526  2019.1978  2019.1978  2020.9431
  2020.9431  2022.6883  2022.6883  2024.4336  2024.4336  2026.1788
  2006.1086  2007.8538  2007.8538  2009.5991  2009.5991  2011.3443
  2011.3443  2013.0895  2013.0895  2014.8348  2014.8348  2016.5800
  2016.5800  2018.3253  2018.3253  2020.0705  2020.0705  2021.8157
  2021.8157  2023.5610  2023.5610  2025.3062  2025.3062  2027.0515
  2006.1086  2007.8538  2007.8538  2009.5991  2009.5991  2011.3443
  2011.3443  2013.0895  2013.0895  2014.8348  2014.8348  2016.5800
  2016.5800  2018.3253  2018.3253  2020.0705  2020.0705  2021.8157
  2021.8157  2023.5610  2023.5610  2025.3062  2025.3062  2027.0515
  2006.9812  2008.7265  2008.7265  2010.4717  2010.4717  2012.2170
  2012.2170  2013.9622  2013.9622  2015.7074  2015.7074  2017.4527
  2017.4527  2019.1979  2019.1979  2020.9432  2020.9432  2022.6884
  2022.6884  2024.4336  2024.4336  2026.1789  2026.1789  2027.9241
  2002.4995  2004.2448  2004.2448  2005.9900  2005.9900  2007.7352
  2007.7352  2009.4805  2009.4805  2011.2257  2011.2257  2012.9710
  2012.9710  2014.7162  2014.7162  2016.4614  2016.4614  2018.2067
  2018.2067  2019.9519  2019.9519  2021.6972  2021.6972  2023.4424
  2003.3722  2005.1174  2005.1174  2006.8627  2006.8627  2008.6079
  2008.6079  2010.3531  2010.3531  2012.0984  2012.0984  2013.8436
  2013.8436  2015.5889  2015.5889  2017.3341  2017.3341  2019.0793
  2019.0793  2020.8246  2020.8246  2022.5698  2022.5698  2024.3151
  2003.3722  2005.1174  2005.1174  2006.8627  2006.8627  2008.6079
  2008.6079  2010.3531  2010.3531  2012.0984  2012.0984  2013.8436
  2013.8436  2015.5889  2015.5889  2017.3341  2017.3341  2019.0793
  2019.0793  2020.8246  2020.8246  2022.5698  2022.5698  2024.3151
  2004.2448  2005.9901  2005.9901  2007.7353  2007.7353  2009.4806
  2009.4806  2011.2258  2011.2258  2012.9710  2012.9710  2014.7163
  2014.7163  2016.4615  2016.4615  2018.2068  2018.2068  2019.9520
  2019.9520  2021.6972  2021.6972  2023.4425  2023.4425  2025.1877
  2004.2448  2005.9901  2005.9901  2007.7353  2007.7353  2009.4806
  2009.4806  2011.2258  2011.2258  2012.9710  2012.9710  2014.7163
  2014.7163  2016.4615  2016.4615  2018.2068  2018.2068  2019.9520
  2019.9520  2021.6972  2021.6972  2023.4425  2023.4425  2025.1877
  2005.1175  2006.8627  2006.8627  2008.6080  2008.6080  2010.3532
  2010.3532  2012.0984  2012.0984  2013.8437  2013.8437  2015.5889
  2015.5889  2017.3342  2017.3342  2019.0794  2019.0794  2020.8247
  2020.8247  2022.5699  2022.5699  2024.3151  2024.3151  2026.0604
  2005.1175  2006.8627  2006.8627  2008.6080  2008.6080  2010.3532
  2010.3532  2012.0984  2012.0984  2013.8437  2013.8437  2015.5889
  2015.5889  2017.3342  2017.3342  2019.0794  2019.0794  2020.8247
  2020.8247  2022.5699  2022.5699  2024.3151  2024.3151  2026.0604
  2005.9901  2007.7354  2007.7354  2009.4806  2009.4806  2011.2259
  2011.2259  2012.9711  2012.9711  2014.7163  2014.7163  2016.4616
  2016.4616  2018.2068  2018.2068  2019.9521  2019.9521  2021.6973
  2021.6973  2023.4425  2023.4425  2025.1878  2025.1878  2026.9330
  2005.9901  2007.7354  2007.7354  2009.4806  2009.4806  2011.2259
  2011.2259  2012.9711  2012.9711  2014.7163  2014.7163  2016.4616
  2016.4616  2018.2068  2018.2068  2019.9521  2019.9521  2021.6973
  2021.6973  2023.4425  2023.4425  2025.1878  2025.1878  2026.9330
  2006.8628  2008.6080  2008.6080  2010.3533  2010.3533  2012.0985
  2012.0985  2013.8438  2013.8438  2015.5890  2015.5890  2017.3342
  2017.3342  2019.0795  2019.0795  2020.8247  2020.8247  2022.5700
  2022.5700  2024.3152  2024.3152  2026.0604  2026.0604  2027.8057
  2006.8628  2008.6080  2008.6080  2010.3533  2010.3533  2012.0985
  2012.0985  2013.8438  2013.8438  2015.5890  2015.5890  2017.3342
  2017.3342  2019.0795  2019.0795  2020.8247  2020.8247  2022.5700
  2022.5700  2024.3152  2024.3152  2026.0604  2026.0604  2027.8057
  2007.7354  2009.4807  2009.4807  2011.2259  2011.2259  2012.9712
  2012.9712  2014.7164  2014.7164  2016.4616  2016.4616  2018.2069
  2018.2069  2019.9521  2019.9521  2021.6974  2021.6974  2023.4426
  2023.4426  2025.1879  2025.1879  2026.9331  2026.9331  2028.6783
  2007.7354  2009.4807  2009.4807  2011.2259  2011.2259  2012.9712
  2012.9712  2014.7164  2014.7164  2016.4616  2016.4616  2018.2069
  2018.2069  2019.9521  2019.9521  2021.6974  2021.6974  2023.4426
  2023.4426  2025.1879  2025.1879  2026.9331  2026.9331  2028.6783
  2008.6081  2010.3533  2010.3533  2012.0986  2012.0986  2013.8438
  2013.8438  2015.5891  2015.5891  2017.3343  2017.3343  2019.0795
  2019.0795  2020.8248  2020.8248  2022.5700  2022.5700  2024.3153
  2024.3153  2026.0605  2026.0605  2027.8057  2027.8057  2029.5510
  2008.6081  2010.3533  2010.3533  2012.0986  2012.0986  2013.8438
  2013.8438  2015.5891  2015.5891  2017.3343  2017.3343  2019.0795
  2019.0795  2020.8248  2020.8248  2022.5700  2022.5700  2024.3153
  2024.3153  2026.0605  2026.0605  2027.8057  2027.8057  2029.5510
  2009.4808  2011.2260  2011.2260  2012.9712  2012.9712  2014.7165
  2014.7165  2016.4617  2016.4617  2018.2070  2018.2070  2019.9522
  2019.9522  2021.6974  2021.6974  2023.4427  2023.4427  2025.1879
  2025.1879  2026.9332  2026.9332  2028.6784  2028.6784  2030.4236
  2002.4995  2004.2448  2004.2448  2005.9900  2005.9900  2007.7352
  2007.7352  2009.4805  2009.4805  2011.2257  2011.2257  2012.9710
  2012.9710  2014.7162  2014.7162  2016.4614  2016.4614  2018.2067
  2018.2067  2019.9519  2019.9519  2021.6972  2021.6972  2023.4424
  2003.3722  2005.1174  2005.1174  2006.8627  2006.8627  2008.6079
  2008.6079  2010.3531  2010.3531  2012.0984  2012.0984  2013.8436
  2013.8436  2015.5889  2015.5889  2017.3341  2017.3341  2019.0793
  2019.0793  2020.8246  2020.8246  2022.5698  2022.5698  2024.3151
  2003.3722  2005.1174  2005.1174  2006.8627  2006.8627  2008.6079
  2008.6079  2010.3531  2010.3531  2012.0984  2012.0984  2013.8436
  2013.8436  2015.5889  2015.5889  2017.3341  2017.3341  2019.0793
  2019.0793  2020.8246  2020.8246  2022.5698  2022.5698  2024.3151
  2004.2448  2005.9901  2005.9901  2007.7353  2007.7353  2009.4806
  2009.4806  2011.2258  2011.2258  2012.9710  2012.9710  2014.7163
  2014.7163  2016.4615  2016.4615  2018.2068  2018.2068  2019.9520
  2019.9520  2021.6972  2021.6972  2023.4425  2023.4425  2025.1877
  2004.2448  2005.9901  2005.9901  2007.7353  2007.7353  2009.4806
  2009.4806  2011.2258  2011.2258  2012.9710  2012.9710  2014.7163
  2014.7163  2016.4615  2016.4615  2018.2068  2018.2068  2019.9520
  2019.9520  2021.6972  2021.6972  2023.4425  2023.4425  2025.1877
  2005.1175  2006.8627  2006.8627  2008.6080  2008.6080  2010.3532
  2010.3532  2012.0984  2012.0984  2013.8437  2013.8437  2015.5889
  2015.5889  2017.3342  2017.3342  2019.0794  2019.0794  2020.8247
  2020.8247  2022.5699  2022.5699  2024.3151  2024.3151  2026.0604
  2005.1175  2006.8627  2006.8627  2008.6080  2008.6080  2010.3532
  2010.3532  2012.0984  2012.0984  2013.8437  2013.8437  2015.5889
  2015.5889  2017.3342  2017.3342  2019.0794  2019.0794  2020.8247
  2020.8247  2022.5699  2022.5699  2024.3151  2024.3151  2026.0604
  2005.9901  2007.7354  2007.7354  2009.4806  2009.4806  2011.2259
  2011.2259  2012.9711  2012.9711  2014.7163  2014.7163  2016.4616
  2016.4616  2018.2068  2018.2068  2019.9521  2019.9521  2021.6973
  2021.6973  2023.4425  2023.4425  2025.1878  2025.1878  2026.9330
  2005.9901  2007.7354  2007.7354  2009.4806  2009.4806  2011.2259
  2011.2259  2012.9711  2012.9711  2014.7163  2014.7163  2016.4616
  2016.4616  2018.2068  2018.2068  2019.9521  2019.9521  2021.6973
  2021.6973  2023.4425  2023.4425  2025.1878  2025.1878  2026.9330
  2006.8628  2008.6080  2008.6080  2010.3533  2010.3533  2012.0985
  2012.0985  2013.8438  2013.8438  2015.5890  2015.5890  2017.3342
  2017.3342  2019.0795  2019.0795  2020.8247  2020.8247  2022.5700
  2022.5700  2024.3152  2024.3152  2026.0604  2026.0604  2027.8057
  2006.8628  2008.6080  2008.6080  2010.3533  2010.3533  2012.0985
  2012.0985  2013.8438  2013.8438  2015.5890  2015.5890  2017.3342
  2017.3342  2019.0795  2019.0795  2020.8247  2020.8247  2022.5700
  2022.5700  2024.3152  2024.3152  2026.0604  2026.0604  2027.8057
  2007.7354  2009.4807  2009.4807  2011.2259  2011.2259  2012.9712
  2012.9712  2014.7164  2014.7164  2016.4616  2016.4616  2018.2069
  2018.2069  2019.9521  2019.9521  2021.6974  2021.6974  2023.4426
  2023.4426  2025.1879  2025.1879  2026.9331  2026.9331  2028.6783
  2007.7354  2009.4807  2009.4807  2011.2259  2011.2259  2012.9712
  2012.9712  2014.7164  2014.7164  2016.4616  2016.4616  2018.2069
  2018.2069  2019.9521  2019.9521  2021.6974  2021.6974  2023.4426
  2023.4426  2025.1879  2025.1879  2026.9331  2026.9331  2028.6783
  2008.6081  2010.3533  2010.3533  2012.0986  2012.0986  2013.8438
  2013.8438  2015.5891  2015.5891  2017.3343  2017.3343  2019.0795
  2019.0795  2020.8248  2020.8248  2022.5700  2022.5700  2024.3153
  2024.3153  2026.0605  2026.0605  2027.8057  2027.8057  2029.5510
  2008.6081  2010.3533  2010.3533  2012.0986  2012.0986  2013.8438
  2013.8438  2015.5891  2015.5891  2017.3343  2017.3343  2019.0795
  2019.0795  2020.8248  2020.8248  2022.5700  2022.5700  2024.3153
  2024.3153  2026.0605  2026.0605  2027.8057  2027.8057  2029.5510
  2009.4808  2011.2260  2011.2260  2012.9712  2012.9712  2014.7165
  2014.7165  2016.4617  2016.4617  2018.2070  2018.2070  2019.9522
  2019.9522  2021.6974  2021.6974  2023.4427  2023.4427  2025.1879
  2025.1879  2026.9332  2026.9332  2028.6784  2028.6784  2030.4236
  2005.4990  2007.2442  2007.2442  2008.9894  2008.9894  2010.7347
  2010.7347  2012.4799  2012.4799  2014.2252  2014.2252  2015.9704
  2015.9704  2017.7156  2017.7156  2019.4609  2019.4609  2021.2061
  2021.2061  2022.9514  2022.9514  2024.6966  2024.6966  2026.4418
  2006.3716  2008.1168  2008.1168  2009.8621  2009.8621  2011.6073
  2011.6073  2013.3526  2013.3526  2015.0978  2015.0978  2016.8431
  2016.8431  2018.5883  2018.5883  2020.3335  2020.3335  2022.0788
  2022.0788  2023.8240  2023.8240  2025.5693  2025.5693  2027.3145
  2006.3716  2008.1168  2008.1168  2009.8621  2009.8621  2011.6073
  2011.6073  2013.3526  2013.3526  2015.0978  2015.0978  2016.8431
  2016.8431  2018.5883  2018.5883  2020.3335  2020.3335  2022.0788
  2022.0788  2023.8240  2023.8240  2025.5693  2025.5693  2027.3145
  2007.2443  2008.9895  2008.9895  2010.7347  2010.7347  2012.4800
  2012.4800  2014.2252  2014.2252  2015.9705  2015.9705  2017.7157
  2017.7157  2019.4609  2019.4609  2021.2062  2021.2062  2022.9514
  2022.9514  2024.6967  2024.6967  2026.4419  2026.4419  2028.1871
  2007.2443  2008.9895  2008.9895  2010.7347  2010.7347  2012.4800
  2012.4800  2014.2252  2014.2252  2015.9705  2015.9705  2017.7157
  2017.7157  2019.4609  2019.4609  2021.2062  2021.2062  2022.9514
  2022.9514  2024.6967  2024.6967  2026.4419  2026.4419  2028.1871
  2008.1169  2009.8622  2009.8622  2011.6074  2011.6074  2013.3526
  2013.3526  2015.0979  2015.0979  2016.8431  2016.8431  2018.5884
  2018.5884  2020.3336  2020.3336  2022.0788  2022.0788  2023.8241
  2023.8241  2025.5693  2025.5693  2027.3146  2027.3146  2029.0598
  2008.1169  2009.8622  2009.8622  2011.6074  2011.6074  2013.3526
  2013.3526  2015.0979  2015.0979  2016.8431  2016.8431  2018.5884
  2018.5884  2020.3336  2020.3336  2022.0788  2022.0788  2023.8241
  2023.8241  2025.5693  2025.5693  2027.3146  2027.3146  2029.0598
  2008.9896  2010.7348  2010.7348  2012.4800  2012.4800  2014.2253
  2014.2253  2015.9705  2015.9705  2017.7158  2017.7158  2019.4610
  2019.4610  2021.2063  2021.2063  2022.9515  2022.9515  2024.6967
  2024.6967  2026.4420  2026.4420  2028.1872  2028.1872  2029.9325
  2008.9896  2010.7348  2010.7348  2012.4800  2012.4800  2014.2253
  2014.2253  2015.9705  2015.9705  2017.7158  2017.7158  2019.4610
  2019.4610  2021.2063  2021.2063  2022.9515  2022.9515  2024.6967
  2024.6967  2026.4420  2026.4420  2028.1872  2028.1872  2029.9325
  2009.8622  2011.6075  2011.6075  2013.3527  2013.3527  2015.0979
  2015.0979  2016.8432  2016.8432  2018.5884  2018.5884  2020.3337
  2020.3337  2022.0789  2022.0789  2023.8241  2023.8241  2025.5694
  2025.5694  2027.3146  2027.3146  2029.0599  2029.0599  2030.8051
  2009.8622  2011.6075  2011.6075  2013.3527  2013.3527  2015.0979
  2015.0979  2016.8432  2016.8432  2018.5884  2018.5884  2020.3337
  2020.3337  2022.0789  2022.0789  2023.8241  2023.8241  2025.5694
  2025.5694  2027.3146  2027.3146  2029.0599  2029.0599  2030.8051
  2010.7349  2012.4801  2012.4801  2014.2254  2014.2254  2015.9706
  2015.9706  2017.7158  2017.7158  2019.4611  2019.4611  2021.2063
  2021.2063  2022.9516  2022.9516  2024.6968  2024.6968  2026.4420
  2026.4420  2028.1873  2028.1873  2029.9325  2029.9325  2031.6778
  2010.7349  2012.4801  2012.4801  2014.2254  2014.2254  2015.9706
  2015.9706  2017.7158  2017.7158  2019.4611  2019.4611  2021.2063
  2021.2063  2022.9516  2022.9516  2024.6968  2024.6968  2026.4420
  2026.4420  2028.1873  2028.1873  2029.9325  2029.9325  2031.6778
  2011.6075  2013.3528  2013.3528  2015.0980  2015.0980  2016.8432
  2016.8432  2018.5885  2018.5885  2020.3337  2020.3337  2022.0790
  2022.0790  2023.8242  2023.8242  2025.5695  2025.5695  2027.3147
  2027.3147  2029.0599  2029.0599  2030.8052  2030.8052  2032.5504
  2011.6075  2013.3528  2013.3528  2015.0980  2015.0980  2016.8432
  2016.8432  2018.5885  2018.5885  2020.3337  2020.3337  2022.0790
  2022.0790  2023.8242  2023.8242  2025.5695  2025.5695  2027.3147
  2027.3147  2029.0599  2029.0599  2030.8052  2030.8052  2032.5504
  2012.4802  2014.2254  2014.2254  2015.9707  2015.9707  2017.7159
  2017.7159  2019.4611  2019.4611  2021.2064  2021.2064  2022.9516
  2022.9516  2024.6969  2024.6969  2026.4421  2026.4421  2028.1873
  2028.1873  2029.9326  2029.9326  2031.6778  2031.6778  2033.4231
  2005.4990  2007.2442  2007.2442  2008.9894  2008.9894  2010.7347
  2010.7347  2012.4799  2012.4799  2014.2252  2014.2252  2015.9704
  2015.9704  2017.7156  2017.7156  2019.4609  2019.4609  2021.2061
  2021.2061  2022.9514  2022.9514  2024.6966  2024.6966  2026.4418
  2006.3716  2008.1168  2008.1168  2009.8621  2009.8621  2011.6073
  2011.6073  2013.3526  2013.3526  2015.0978  2015.0978  2016.8431
  2016.8431  2018.5883  2018.5883  2020.3335  2020.3335  2022.0788
  2022.0788  2023.8240  2023.8240  2025.5693  2025.5693  2027.3145
  2006.3716  2008.1168  2008.1168  2009.8621  2009.8621  2011.6073
  2011.6073  2013.3526  2013.3526  2015.0978  2015.0978  2016.8431
  2016.8431  2018.5883  2018.5883  2020.3335  2020.3335  2022.0788
  2022.0788  2023.8240  2023.8240  2025.5693  2025.5693  2027.3145
  2007.2443  2008.9895  2008.9895  2010.7347  2010.7347  2012.4800
  2012.4800  2014.2252  2014.2252  2015.9705  2015.9705  2017.7157
  2017.7157  2019.4609  2019.4609  2021.2062  2021.2062  2022.9514
  2022.9514  2024.6967  2024.6967  2026.4419  2026.4419  2028.1871
  2007.2443  2008.9895  2008.9895  2010.7347  2010.7347  2012.4800
  2012.4800  2014.2252  2014.2252  2015.9705  2015.9705  2017.7157
  2017.7157  2019.4609  2019.4609  2021.2062  2021.2062  2022.9514
  2022.9514  2024.6967  2024.6967  2026.4419  2026.4419  2028.1871
  2008.1169  2009.8622  2009.8622  2011.6074  2011.6074  2013.3526
  2013.3526  2015.0979  2015.0979  2016.8431  2016.8431  2018.5884
  2018.5884  2020.3336  2020.3336  2022.0788  2022.0788  2023.8241
  2023.8241  2025.5693  2025.5693  2027.3146  2027.3146  2029.0598
  2008.1169  2009.8622  2009.8622  2011.6074  2011.6074  2013.3526
  2013.3526  2015.0979  2015.0979  2016.8431  2016.8431  2018.5884
  2018.5884  2020.3336  2020.3336  2022.0788  2022.0788  2023.8241
  2023.8241  2025.5693  2025.5693  2027.3146  2027.3146  2029.0598
  2008.9896  2010.7348  2010.7348  2012.4800  2012.4800  2014.2253
  2014.2253  2015.9705  2015.9705  2017.7158  2017.7158  2019.4610
  2019.4610  2021.2063  2021.2063  2022.9515  2022.9515  2024.6967
  2024.6967  2026.4420  2026.4420  2028.1872  2028.1872  2029.9325
  2008.9896  2010.7348  2010.7348  2012.4800  2012.4800  2014.2253
  2014.2253  2015.9705  2015.9705  2017.7158  2017.7158  2019.4610
  2019.4610  2021.2063  2021.2063  2022.9515  2022.9515  2024.6967
  2024.6967  2026.4420  2026.4420  2028.1872  2028.1872  2029.9325
  2009.8622  2011.6075  2011.6075  2013.3527  2013.3527  2015.0979
  2015.0979  2016.8432  2016.8432  2018.5884  2018.5884  2020.3337
  2020.3337  2022.0789  2022.0789  2023.8241  2023.8241  2025.5694
  2025.5694  2027.3146  2027.3146  2029.0599  2029.0599  2030.8051
  2009.8622  2011.6075  2011.6075  2013.3527  2013.3527  2015.0979
  2015.0979  2016.8432  2016.8432  2018.5884  2018.5884  2020.3337
  2020.3337  2022.0789  2022.0789  2023.8241  2023.8241  2025.5694
  2025.5694  2027.3146  2027.3146  2029.0599  2029.0599  2030.8051
  2010.7349  2012.4801  2012.4801  2014.2254  2014.2254  2015.9706
  2015.9706  2017.7158  2017.7158  2019.4611  2019.4611  2021.2063
  2021.2063  2022.9516  2022.9516  2024.6968  2024.6968  2026.4420
  2026.4420  2028.1873  2028.1873  2029.9325  2029.9325  2031.6778
  2010.7349  2012.4801  2012.4801  2014.2254  2014.2254  2015.9706
  2015.9706  2017.7158  2017.7158  2019.4611  2019.4611  2021.2063
  2021.2063  2022.9516  2022.9516  2024.6968  2024.6968  2026.4420
  2026.4420  2028.1873  2028.1873  2029.9325  2029.9325  2031.6778
  2011.6075  2013.3528  2013.3528  2015.0980  2015.0980  2016.8432
  2016.8432  2018.5885  2018.5885  2020.3337  2020.3337  2022.0790
  2022.0790  2023.8242  2023.8242  2025.5695  2025.5695  2027.3147
  2027.3147  2029.0599  2029.0599  2030.8052  2030.8052  2032.5504
  2011.6075  2013.3528  2013.3528  2015.0980  2015.0980  2016.8432
  2016.8432  2018.5885  2018.5885  2020.3337  2020.3337  2022.0790
  2022.0790  2023.8242  2023.8242  2025.5695  2025.5695  2027.3147
  2027.3147  2029.0599  2029.0599  2030.8052  2030.8052  2032.5504
  2012.4802  2014.2254  2014.2254  2015.9707  2015.9707  2017.7159
  2017.7159  2019.4611  2019.4611  2021.2064  2021.2064  2022.9516
  2022.9516  2024.6969  2024.6969  2026.4421  2026.4421  2028.1873
  2028.1873  2029.9326  2029.9326  2031.6778  2031.6778  2033.4231
  2008.9983  2010.7435  2010.7435  2012.4888  2012.4888  2014.2340