-- This reservoir simulation deck is made available under the Open Database
-- License: http://opendatacommons.org/licenses/odbl/1.0/. Any rights in
-- individual contents of the database are licensed under the Database Contents
-- License: http://opendatacommons.org/licenses/dbcl/1.0/

-- Copyright (C) 2020 Equinor


SPECGRID
 12 14 15 1 F / 

COORD
  2000.0000  2000.0000  2000.0000   1999.9609  1999.9922  2032.0949 
  2099.9848  2000.0000  2001.7452   2099.9457  1999.9922  2033.8402 
  2199.9695  2000.0000  2003.4905   2199.9304  1999.9922  2035.5854 
  2299.9543  2000.0000  2005.2357   2299.9152  1999.9922  2037.3306 
  2399.9391  2000.0000  2006.9810   2399.9000  1999.9922  2039.0759 
  2499.9238  2000.0000  2008.7262   2499.8848  1999.9922  2040.8211 
  2599.9086  2000.0000  2010.4714   2599.8695  1999.9922  2042.5664 
  2699.8934  2000.0000  2012.2167   2699.8543  1999.9922  2044.3116 
  2799.8782  2000.0000  2013.9619   2799.8391  1999.9922  2046.0568 
  2899.8629  2000.0000  2015.7072   2899.8238  1999.9922  2047.8021 
  2999.8477  2000.0000  2017.4524   2999.8086  1999.9922  2049.5473 
  3099.8325  2000.0000  2019.1976   3099.7934  1999.9922  2051.2926 
  3199.8172  2000.0000  2020.9429   3199.7781  1999.9922  2053.0378 
  2000.0000  2099.9994  2000.3491   1999.9609  2099.9916  2032.4440 
  2099.9848  2099.9994  2002.0943   2099.9457  2099.9916  2034.1892 
  2199.9695  2099.9994  2003.8395   2199.9304  2099.9916  2035.9345 
  2299.9543  2099.9994  2005.5848   2299.9152  2099.9916  2037.6797 
  2399.9391  2099.9994  2007.3300   2399.9000  2099.9916  2039.4249 
  2499.9238  2099.9994  2009.0753   2499.8848  2099.9916  2041.1702 
  2599.9086  2099.9994  2010.8205   2599.8695  2099.9916  2042.9154 
  2699.8934  2099.9994  2012.5657   2699.8543  2099.9916  2044.6607 
  2799.8782  2099.9994  2014.3110   2799.8391  2099.9916  2046.4059 
  2899.8629  2099.9994  2016.0562   2899.8238  2099.9916  2048.1511 
  2999.8477  2099.9994  2017.8015   2999.8086  2099.9916  2049.8964 
  3099.8325  2099.9994  2019.5467   3099.7934  2099.9916  2051.6416 
  3199.8172  2099.9994  2021.2920   3199.7781  2099.9916  2053.3869 
  2000.0000  2199.9988  2000.6981   1999.9609  2199.9910  2032.7930 
  2099.9848  2199.9988  2002.4434   2099.9457  2199.9910  2034.5383 
  2199.9695  2199.9988  2004.1886   2199.9304  2199.9910  2036.2835 
  2299.9543  2199.9988  2005.9339   2299.9152  2199.9910  2038.0288 
  2399.9391  2199.9988  2007.6791   2399.9000  2199.9910  2039.7740 
  2499.9238  2199.9988  2009.4243   2499.8848  2199.9910  2041.5192 
  2599.9086  2199.9988  2011.1696   2599.8695  2199.9910  2043.2645 
  2699.8934  2199.9988  2012.9148   2699.8543  2199.9910  2045.0097 
  2799.8782  2199.9988  2014.6601   2799.8391  2199.9910  2046.7550 
  2899.8629  2199.9988  2016.4053   2899.8238  2199.9910  2048.5002 
  2999.8477  2199.9988  2018.1505   2999.8086  2199.9910  2050.2455 
  3099.8325  2199.9988  2019.8958   3099.7934  2199.9910  2051.9907 
  3199.8172  2199.9988  2021.6410   3199.7781  2199.9910  2053.7359 
  2000.0000  2299.9982  2001.0472   1999.9609  2299.9904  2033.1421 
  2099.9848  2299.9982  2002.7924   2099.9457  2299.9904  2034.8874 
  2199.9695  2299.9982  2004.5377   2199.9304  2299.9904  2036.6326 
  2299.9543  2299.9982  2006.2829   2299.9152  2299.9904  2038.3778 
  2399.9391  2299.9982  2008.0282   2399.9000  2299.9904  2040.1231 
  2499.9238  2299.9982  2009.7734   2499.8848  2299.9904  2041.8683 
  2599.9086  2299.9982  2011.5186   2599.8695  2299.9904  2043.6136 
  2699.8934  2299.9982  2013.2639   2699.8543  2299.9904  2045.3588 
  2799.8782  2299.9982  2015.0091   2799.8391  2299.9904  2047.1040 
  2899.8629  2299.9982  2016.7544   2899.8238  2299.9904  2048.8493 
  2999.8477  2299.9982  2018.4996   2999.8086  2299.9904  2050.5945 
  3099.8325  2299.9982  2020.2448   3099.7934  2299.9904  2052.3398 
  3199.8172  2299.9982  2021.9901   3199.7781  2299.9904  2054.0850 
  2000.0000  2399.9976  2001.3963   1999.9609  2399.9897  2033.4912 
  2099.9848  2399.9976  2003.1415   2099.9457  2399.9897  2035.2364 
  2199.9695  2399.9976  2004.8867   2199.9304  2399.9897  2036.9817 
  2299.9543  2399.9976  2006.6320   2299.9152  2399.9897  2038.7269 
  2399.9391  2399.9976  2008.3772   2399.9000  2399.9897  2040.4721 
  2499.9238  2399.9976  2010.1225   2499.8848  2399.9897  2042.2174 
  2599.9086  2399.9976  2011.8677   2599.8695  2399.9897  2043.9626 
  2699.8934  2399.9976  2013.6129   2699.8543  2399.9897  2045.7079 
  2799.8782  2399.9976  2015.3582   2799.8391  2399.9897  2047.4531 
  2899.8629  2399.9976  2017.1034   2899.8238  2399.9897  2049.1983 
  2999.8477  2399.9976  2018.8487   2999.8086  2399.9897  2050.9436 
  3099.8325  2399.9976  2020.5939   3099.7934  2399.9897  2052.6888 
  3199.8172  2399.9976  2022.3391   3199.7781  2399.9897  2054.4341 
  2000.0000  2499.9970  2001.7453   1999.9609  2499.9891  2033.8402 
  2099.9848  2499.9970  2003.4906   2099.9457  2499.9891  2035.5855 
  2199.9695  2499.9970  2005.2358   2199.9304  2499.9891  2037.3307 
  2299.9543  2499.9970  2006.9810   2299.9152  2499.9891  2039.0760 
  2399.9391  2499.9970  2008.7263   2399.9000  2499.9891  2040.8212 
  2499.9238  2499.9970  2010.4715   2499.8848  2499.9891  2042.5664 
  2599.9086  2499.9970  2012.2168   2599.8695  2499.9891  2044.3117 
  2699.8934  2499.9970  2013.9620   2699.8543  2499.9891  2046.0569 
  2799.8782  2499.9970  2015.7073   2799.8391  2499.9891  2047.8022 
  2899.8629  2499.9970  2017.4525   2899.8238  2499.9891  2049.5474 
  2999.8477  2499.9970  2019.1977   2999.8086  2499.9891  2051.2926 
  3099.8325  2499.9970  2020.9430   3099.7934  2499.9891  2053.0379 
  3199.8172  2499.9970  2022.6882   3199.7781  2499.9891  2054.7831 
  2000.0000  2599.9963  2002.0944   1999.9609  2599.9885  2034.1893 
  2099.9848  2599.9963  2003.8396   2099.9457  2599.9885  2035.9345 
  2199.9695  2599.9963  2005.5849   2199.9304  2599.9885  2037.6798 
  2299.9543  2599.9963  2007.3301   2299.9152  2599.9885  2039.4250 
  2399.9391  2599.9963  2009.0754   2399.9000  2599.9885  2041.1703 
  2499.9238  2599.9963  2010.8206   2499.8848  2599.9885  2042.9155 
  2599.9086  2599.9963  2012.5658   2599.8695  2599.9885  2044.6608 
  2699.8934  2599.9963  2014.3111   2699.8543  2599.9885  2046.4060 
  2799.8782  2599.9963  2016.0563   2799.8391  2599.9885  2048.1512 
  2899.8629  2599.9963  2017.8016   2899.8238  2599.9885  2049.8965 
  2999.8477  2599.9963  2019.5468   2999.8086  2599.9885  2051.6417 
  3099.8325  2599.9963  2021.2920   3099.7934  2599.9885  2053.3870 
  3199.8172  2599.9963  2023.0373   3199.7781  2599.9885  2055.1322 
  2000.0000  2699.9957  2002.4435   1999.9609  2699.9879  2034.5384 
  2099.9848  2699.9957  2004.1887   2099.9457  2699.9879  2036.2836 
  2199.9695  2699.9957  2005.9339   2199.9304  2699.9879  2038.0289 
  2299.9543  2699.9957  2007.6792   2299.9152  2699.9879  2039.7741 
  2399.9391  2699.9957  2009.4244   2399.9000  2699.9879  2041.5193 
  2499.9238  2699.9957  2011.1697   2499.8848  2699.9879  2043.2646 
  2599.9086  2699.9957  2012.9149   2599.8695  2699.9879  2045.0098 
  2699.8934  2699.9957  2014.6601   2699.8543  2699.9879  2046.7551 
  2799.8782  2699.9957  2016.4054   2799.8391  2699.9879  2048.5003 
  2899.8629  2699.9957  2018.1506   2899.8238  2699.9879  2050.2455 
  2999.8477  2699.9957  2019.8959   2999.8086  2699.9879  2051.9908 
  3099.8325  2699.9957  2021.6411   3099.7934  2699.9879  2053.7360 
  3199.8172  2699.9957  2023.3863   3199.7781  2699.9879  2055.4813 
  2000.0000  2799.9951  2002.7925   1999.9609  2799.9873  2034.8874 
  2099.9848  2799.9951  2004.5378   2099.9457  2799.9873  2036.6327 
  2199.9695  2799.9951  2006.2830   2199.9304  2799.9873  2038.3779 
  2299.9543  2799.9951  2008.0282   2299.9152  2799.9873  2040.1232 
  2399.9391  2799.9951  2009.7735   2399.9000  2799.9873  2041.8684 
  2499.9238  2799.9951  2011.5187   2499.8848  2799.9873  2043.6136 
  2599.9086  2799.9951  2013.2640   2599.8695  2799.9873  2045.3589 
  2699.8934  2799.9951  2015.0092   2699.8543  2799.9873  2047.1041 
  2799.8782  2799.9951  2016.7544   2799.8391  2799.9873  2048.8494 
  2899.8629  2799.9951  2018.4997   2899.8238  2799.9873  2050.5946 
  2999.8477  2799.9951  2020.2449   2999.8086  2799.9873  2052.3398 
  3099.8325  2799.9951  2021.9902   3099.7934  2799.9873  2054.0851 
  3199.8172  2799.9951  2023.7354   3199.7781  2799.9873  2055.8303 
  2000.0000  2899.9945  2003.1416   1999.9609  2899.9867  2035.2365 
  2099.9848  2899.9945  2004.8868   2099.9457  2899.9867  2036.9817 
  2199.9695  2899.9945  2006.6321   2199.9304  2899.9867  2038.7270 
  2299.9543  2899.9945  2008.3773   2299.9152  2899.9867  2040.4722 
  2399.9391  2899.9945  2010.1225   2399.9000  2899.9867  2042.2175 
  2499.9238  2899.9945  2011.8678   2499.8848  2899.9867  2043.9627 
  2599.9086  2899.9945  2013.6130   2599.8695  2899.9867  2045.7079 
  2699.8934  2899.9945  2015.3583   2699.8543  2899.9867  2047.4532 
  2799.8782  2899.9945  2017.1035   2799.8391  2899.9867  2049.1984 
  2899.8629  2899.9945  2018.8488   2899.8238  2899.9867  2050.9437 
  2999.8477  2899.9945  2020.5940   2999.8086  2899.9867  2052.6889 
  3099.8325  2899.9945  2022.3392   3099.7934  2899.9867  2054.4341 
  3199.8172  2899.9945  2024.0845   3199.7781  2899.9867  2056.1794 
  2000.0000  2999.9939  2003.4907   1999.9609  2999.9861  2035.5856 
  2099.9848  2999.9939  2005.2359   2099.9457  2999.9861  2037.3308 
  2199.9695  2999.9939  2006.9811   2199.9304  2999.9861  2039.0760 
  2299.9543  2999.9939  2008.7264   2299.9152  2999.9861  2040.8213 
  2399.9391  2999.9939  2010.4716   2399.9000  2999.9861  2042.5665 
  2499.9238  2999.9939  2012.2169   2499.8848  2999.9861  2044.3118 
  2599.9086  2999.9939  2013.9621   2599.8695  2999.9861  2046.0570 
  2699.8934  2999.9939  2015.7073   2699.8543  2999.9861  2047.8023 
  2799.8782  2999.9939  2017.4526   2799.8391  2999.9861  2049.5475 
  2899.8629  2999.9939  2019.1978   2899.8238  2999.9861  2051.2927 
  2999.8477  2999.9939  2020.9431   2999.8086  2999.9861  2053.0380 
  3099.8325  2999.9939  2022.6883   3099.7934  2999.9861  2054.7832 
  3199.8172  2999.9939  2024.4335   3199.7781  2999.9861  2056.5285 
  2000.0000  3099.9933  2003.8397   1999.9609  3099.9855  2035.9346 
  2099.9848  3099.9933  2005.5850   2099.9457  3099.9855  2037.6799 
  2199.9695  3099.9933  2007.3302   2199.9304  3099.9855  2039.4251 
  2299.9543  3099.9933  2009.0754   2299.9152  3099.9855  2041.1704 
  2399.9391  3099.9933  2010.8207   2399.9000  3099.9855  2042.9156 
  2499.9238  3099.9933  2012.5659   2499.8848  3099.9855  2044.6608 
  2599.9086  3099.9933  2014.3112   2599.8695  3099.9855  2046.4061 
  2699.8934  3099.9933  2016.0564   2699.8543  3099.9855  2048.1513 
  2799.8782  3099.9933  2017.8016   2799.8391  3099.9855  2049.8966 
  2899.8629  3099.9933  2019.5469   2899.8238  3099.9855  2051.6418 
  2999.8477  3099.9933  2021.2921   2999.8086  3099.9855  2053.3870 
  3099.8325  3099.9933  2023.0374   3099.7934  3099.9855  2055.1323 
  3199.8172  3099.9933  2024.7826   3199.7781  3099.9855  2056.8775 
  2000.0000  3199.9927  2004.1888   1999.9609  3199.9849  2036.2837 
  2099.9848  3199.9927  2005.9340   2099.9457  3199.9849  2038.0289 
  2199.9695  3199.9927  2007.6793   2199.9304  3199.9849  2039.7742 
  2299.9543  3199.9927  2009.4245   2299.9152  3199.9849  2041.5194 
  2399.9391  3199.9927  2011.1697   2399.9000  3199.9849  2043.2647 
  2499.9238  3199.9927  2012.9150   2499.8848  3199.9849  2045.0099 
  2599.9086  3199.9927  2014.6602   2599.8695  3199.9849  2046.7551 
  2699.8934  3199.9927  2016.4055   2699.8543  3199.9849  2048.5004 
  2799.8782  3199.9927  2018.1507   2799.8391  3199.9849  2050.2456 
  2899.8629  3199.9927  2019.8959   2899.8238  3199.9849  2051.9909 
  2999.8477  3199.9927  2021.6412   2999.8086  3199.9849  2053.7361 
  3099.8325  3199.9927  2023.3864   3099.7934  3199.9849  2055.4813 
  3199.8172  3199.9927  2025.1317   3199.7781  3199.9849  2057.2266 
  2000.0000  3299.9921  2004.5378   1999.9609  3299.9843  2036.6328 
  2099.9848  3299.9921  2006.2831   2099.9457  3299.9843  2038.3780 
  2199.9695  3299.9921  2008.0283   2199.9304  3299.9843  2040.1232 
  2299.9543  3299.9921  2009.7736   2299.9152  3299.9843  2041.8685 
  2399.9391  3299.9921  2011.5188   2399.9000  3299.9843  2043.6137 
  2499.9238  3299.9921  2013.2641   2499.8848  3299.9843  2045.3590 
  2599.9086  3299.9921  2015.0093   2599.8695  3299.9843  2047.1042 
  2699.8934  3299.9921  2016.7545   2699.8543  3299.9843  2048.8494 
  2799.8782  3299.9921  2018.4998   2799.8391  3299.9843  2050.5947 
  2899.8629  3299.9921  2020.2450   2899.8238  3299.9843  2052.3399 
  2999.8477  3299.9921  2021.9903   2999.8086  3299.9843  2054.0852 
  3099.8325  3299.9921  2023.7355   3099.7934  3299.9843  2055.8304 
  3199.8172  3299.9921  2025.4807   3199.7781  3299.9843  2057.5757 
  2000.0000  3399.9915  2004.8869   1999.9609  3399.9837  2036.9818 
  2099.9848  3399.9915  2006.6322   2099.9457  3399.9837  2038.7271 
  2199.9695  3399.9915  2008.3774   2199.9304  3399.9837  2040.4723 
  2299.9543  3399.9915  2010.1226   2299.9152  3399.9837  2042.2175 
  2399.9391  3399.9915  2011.8679   2399.9000  3399.9837  2043.9628 
  2499.9238  3399.9915  2013.6131   2499.8848  3399.9837  2045.7080 
  2599.9086  3399.9915  2015.3584   2599.8695  3399.9837  2047.4533 
  2699.8934  3399.9915  2017.1036   2699.8543  3399.9837  2049.1985 
  2799.8782  3399.9915  2018.8488   2799.8391  3399.9837  2050.9438 
  2899.8629  3399.9915  2020.5941   2899.8238  3399.9837  2052.6890 
  2999.8477  3399.9915  2022.3393   2999.8086  3399.9837  2054.4342 
  3099.8325  3399.9915  2024.0846   3099.7934  3399.9837  2056.1795 
  3199.8172  3399.9915  2025.8298   3199.7781  3399.9837  2057.9247 
/ 

ZCORN
  2000.0000  2001.7452  2001.7452  2003.4905  2003.4905  2005.2357
  2005.2357  2006.9810  2006.9810  2008.7262  2008.7262  2010.4714
  2010.4714  2012.2167  2012.2167  2013.9619  2013.9619  2015.7072
  2015.7072  2017.4524  2017.4524  2019.1976  2019.1976  2020.9429
  2000.3491  2002.0943  2002.0943  2003.8395  2003.8395  2005.5848
  2005.5848  2007.3300  2007.3300  2009.0753  2009.0753  2010.8205
  2010.8205  2012.5657  2012.5657  2014.3110  2014.3110  2016.0562
  2016.0562  2017.8015  2017.8015  2019.5467  2019.5467  2021.2920
  2000.3491  2002.0943  2002.0943  2003.8395  2003.8395  2005.5848
  2005.5848  2007.3300  2007.3300  2009.0753  2009.0753  2010.8205
  2010.8205  2012.5657  2012.5657  2014.3110  2014.3110  2016.0562
  2016.0562  2017.8015  2017.8015  2019.5467  2019.5467  2021.2920
  2000.6981  2002.4434  2002.4434  2004.1886  2004.1886  2005.9339
  2005.9339  2007.6791  2007.6791  2009.4243  2009.4243  2011.1696
  2011.1696  2012.9148  2012.9148  2014.6601  2014.6601  2016.4053
  2016.4053  2018.1505  2018.1505  2019.8958  2019.8958  2021.6410
  2000.6981  2002.4434  2002.4434  2004.1886  2004.1886  2005.9339
  2005.9339  2007.6791  2007.6791  2009.4243  2009.4243  2011.1696
  2011.1696  2012.9148  2012.9148  2014.6601  2014.6601  2016.4053
  2016.4053  2018.1505  2018.1505  2019.8958  2019.8958  2021.6410
  2001.0472  2002.7924  2002.7924  2004.5377  2004.5377  2006.2829
  2006.2829  2008.0282  2008.0282  2009.7734  2009.7734  2011.5186
  2011.5186  2013.2639  2013.2639  2015.0091  2015.0091  2016.7544
  2016.7544  2018.4996  2018.4996  2020.2448  2020.2448  2021.9901
  2001.0472  2002.7924  2002.7924  2004.5377  2004.5377  2006.2829
  2006.2829  2008.0282  2008.0282  2009.7734  2009.7734  2011.5186
  2011.5186  2013.2639  2013.2639  2015.0091  2015.0091  2016.7544
  2016.7544  2018.4996  2018.4996  2020.2448  2020.2448  2021.9901
  2001.3963  2003.1415  2003.1415  2004.8867  2004.8867  2006.6320
  2006.6320  2008.3772  2008.3772  2010.1225  2010.1225  2011.8677
  2011.8677  2013.6129  2013.6129  2015.3582  2015.3582  2017.1034
  2017.1034  2018.8487  2018.8487  2020.5939  2020.5939  2022.3391
  2001.3963  2003.1415  2003.1415  2004.8867  2004.8867  2006.6320
  2006.6320  2008.3772  2008.3772  2010.1225  2010.1225  2011.8677
  2011.8677  2013.6129  2013.6129  2015.3582  2015.3582  2017.1034
  2017.1034  2018.8487  2018.8487  2020.5939  2020.5939  2022.3391
  2001.7453  2003.4906  2003.4906  2005.2358  2005.2358  2006.9810
  2006.9810  2008.7263  2008.7263  2010.4715  2010.4715  2012.2168
  2012.2168  2013.9620  2013.9620  2015.7073  2015.7073  2017.4525
  2017.4525  2019.1977  2019.1977  2020.9430  2020.9430  2022.6882
  2001.7453  2003.4906  2003.4906  2005.2358  2005.2358  2006.9810
  2006.9810  2008.7263  2008.7263  2010.4715  2010.4715  2012.2168
  2012.2168  2013.9620  2013.9620  2015.7073  2015.7073  2017.4525
  2017.4525  2019.1977  2019.1977  2020.9430  2020.9430  2022.6882
  2002.0944  2003.8396  2003.8396  2005.5849  2005.5849  2007.3301
  2007.3301  2009.0754  2009.0754  2010.8206  2010.8206  2012.5658
  2012.5658  2014.3111  2014.3111  2016.0563  2016.0563  2017.8016
  2017.8016  2019.5468  2019.5468  2021.2920  2021.2920  2023.0373
  2002.0944  2003.8396  2003.8396  2005.5849  2005.5849  2007.3301
  2007.3301  2009.0754  2009.0754  2010.8206  2010.8206  2012.5658
  2012.5658  2014.3111  2014.3111  2016.0563  2016.0563  2017.8016
  2017.8016  2019.5468  2019.5468  2021.2920  2021.2920  2023.0373
  2002.4435  2004.1887  2004.1887  2005.9339  2005.9339  2007.6792
  2007.6792  2009.4244  2009.4244  2011.1697  2011.1697  2012.9149
  2012.9149  2014.6601  2014.6601  2016.4054  2016.4054  2018.1506
  2018.1506  2019.8959  2019.8959  2021.6411  2021.6411  2023.3863
  2002.4435  2004.1887  2004.1887  2005.9339  2005.9339  2007.6792
  2007.6792  2009.4244  2009.4244  2011.1697  2011.1697  2012.9149
  2012.9149  2014.6601  2014.6601  2016.4054  2016.4054  2018.1506
  2018.1506  2019.8959  2019.8959  2021.6411  2021.6411  2023.3863
  2002.7925  2004.5378  2004.5378  2006.2830  2006.2830  2008.0282
  2008.0282  2009.7735  2009.7735  2011.5187  2011.5187  2013.2640
  2013.2640  2015.0092  2015.0092  2016.7544  2016.7544  2018.4997
  2018.4997  2020.2449  2020.2449  2021.9902  2021.9902  2023.7354
  2002.7925  2004.5378  2004.5378  2006.2830  2006.2830  2008.0282
  2008.0282  2009.7735  2009.7735  2011.5187  2011.5187  2013.2640
  2013.2640  2015.0092  2015.0092  2016.7544  2016.7544  2018.4997
  2018.4997  2020.2449  2020.2449  2021.9902  2021.9902  2023.7354
  2003.1416  2004.8868  2004.8868  2006.6321  2006.6321  2008.3773
  2008.3773  2010.1225  2010.1225  2011.8678  2011.8678  2013.6130
  2013.6130  2015.3583  2015.3583  2017.1035  2017.1035  2018.8488
  2018.8488  2020.5940  2020.5940  2022.3392  2022.3392  2024.0845
  2003.1416  2004.8868  2004.8868  2006.6321  2006.6321  2008.3773
  2008.3773  2010.1225  2010.1225  2011.8678  2011.8678  2013.6130
  2013.6130  2015.3583  2015.3583  2017.1035  2017.1035  2018.8488
  2018.8488  2020.5940  2020.5940  2022.3392  2022.3392  2024.0845
  2003.4907  2005.2359  2005.2359  2006.9811  2006.9811  2008.7264
  2008.7264  2010.4716  2010.4716  2012.2169  2012.2169  2013.9621
  2013.9621  2015.7073  2015.7073  2017.4526  2017.4526  2019.1978
  2019.1978  2020.9431  2020.9431  2022.6883  2022.6883  2024.4335
  2003.4907  2005.2359  2005.2359  2006.9811  2006.9811  2008.7264
  2008.7264  2010.4716  2010.4716  2012.2169  2012.2169  2013.9621
  2013.9621  2015.7073  2015.7073  2017.4526  2017.4526  2019.1978
  2019.1978  2020.9431  2020.9431  2022.6883  2022.6883  2024.4335
  2003.8397  2005.5850  2005.5850  2007.3302  2007.3302  2009.0754
  2009.0754  2010.8207  2010.8207  2012.5659  2012.5659  2014.3112
  2014.3112  2016.0564  2016.0564  2017.8016  2017.8016  2019.5469
  2019.5469  2021.2921  2021.2921  2023.0374  2023.0374  2024.7826
  2003.8397  2005.5850  2005.5850  2007.3302  2007.3302  2009.0754
  2009.0754  2010.8207  2010.8207  2012.5659  2012.5659  2014.3112
  2014.3112  2016.0564  2016.0564  2017.8016  2017.8016  2019.5469
  2019.5469  2021.2921  2021.2921  2023.0374  2023.0374  2024.7826
  2004.1888  2005.9340  2005.9340  2007.6793  2007.6793  2009.4245
  2009.4245  2011.1697  2011.1697  2012.9150  2012.9150  2014.6602
  2014.6602  2016.4055  2016.4055  2018.1507  2018.1507  2019.8959
  2019.8959  2021.6412  2021.6412  2023.3864  2023.3864  2025.1317
  2004.1888  2005.9340  2005.9340  2007.6793  2007.6793  2009.4245
  2009.4245  2011.1697  2011.1697  2012.9150  2012.9150  2014.6602
  2014.6602  2016.4055  2016.4055  2018.1507  2018.1507  2019.8959
  2019.8959  2021.6412  2021.6412  2023.3864  2023.3864  2025.1317
  2004.5378  2006.2831  2006.2831  2008.0283  2008.0283  2009.7736
  2009.7736  2011.5188  2011.5188  2013.2641  2013.2641  2015.0093
  2015.0093  2016.7545  2016.7545  2018.4998  2018.4998  2020.2450
  2020.2450  2021.9903  2021.9903  2023.7355  2023.7355  2025.4807
  2004.5378  2006.2831  2006.2831  2008.0283  2008.0283  2009.7736
  2009.7736  2011.5188  2011.5188  2013.2641  2013.2641  2015.0093
  2015.0093  2016.7545  2016.7545  2018.4998  2018.4998  2020.2450
  2020.2450  2021.9903  2021.9903  2023.7355  2023.7355  2025.4807
  2004.8869  2006.6322  2006.6322  2008.3774  2008.3774  2010.1226
  2010.1226  2011.8679  2011.8679  2013.6131  2013.6131  2015.3584
  2015.3584  2017.1036  2017.1036  2018.8488  2018.8488  2020.5941
  2020.5941  2022.3393  2022.3393  2024.0846  2024.0846  2025.8298
  2002.4496  2004.1949  2004.1949  2005.9401  2005.9401  2007.6853
  2007.6853  2009.4306  2009.4306  2011.1758  2011.1758  2012.9211
  2012.9211  2014.6663  2014.6663  2016.4115  2016.4115  2018.1568
  2018.1568  2019.9020  2019.9020  2021.6473  2021.6473  2023.3925
  2002.7987  2004.5439  2004.5439  2006.2892  2006.2892  2008.0344
  2008.0344  2009.7796  2009.7796  2011.5249  2011.5249  2013.2701
  2013.2701  2015.0154  2015.0154  2016.7606  2016.7606  2018.5058
  2018.5058  2020.2511  2020.2511  2021.9963  2021.9963  2023.7416
  2002.7987  2004.5439  2004.5439  2006.2892  2006.2892  2008.0344
  2008.0344  2009.7796  2009.7796  2011.5249  2011.5249  2013.2701
  2013.2701  2015.0154  2015.0154  2016.7606  2016.7606  2018.5058
  2018.5058  2020.2511  2020.2511  2021.9963  2021.9963  2023.7416
  2003.1477  2004.8930  2004.8930  2006.6382  2006.6382  2008.3835
  2008.3835  2010.1287  2010.1287  2011.8739  2011.8739  2013.6192
  2013.6192  2015.3644  2015.3644  2017.1097  2017.1097  2018.8549
  2018.8549  2020.6001  2020.6001  2022.3454  2022.3454  2024.0906
  2003.1477  2004.8930  2004.8930  2006.6382  2006.6382  2008.3835
  2008.3835  2010.1287  2010.1287  2011.8739  2011.8739  2013.6192
  2013.6192  2015.3644  2015.3644  2017.1097  2017.1097  2018.8549
  2018.8549  2020.6001  2020.6001  2022.3454  2022.3454  2024.0906
  2003.4968  2005.2420  2005.2420  2006.9873  2006.9873  2008.7325
  2008.7325  2010.4778  2010.4778  2012.2230  2012.2230  2013.9683
  2013.9683  2015.7135  2015.7135  2017.4587  2017.4587  2019.2040
  2019.2040  2020.9492  2020.9492  2022.6945  2022.6945  2024.4397
  2003.4968  2005.2420  2005.2420  2006.9873  2006.9873  2008.7325
  2008.7325  2010.4778  2010.4778  2012.2230  2012.2230  2013.9683
  2013.9683  2015.7135  2015.7135  2017.4587  2017.4587  2019.2040
  2019.2040  2020.9492  2020.9492  2022.6945  2022.6945  2024.4397
  2003.8459  2005.5911  2005.5911  2007.3364  2007.3364  2009.0816
  2009.0816  2010.8268  2010.8268  2012.5721  2012.5721  2014.3173
  2014.3173  2016.0626  2016.0626  2017.8078  2017.8078  2019.5530
  2019.5530  2021.2983  2021.2983  2023.0435  2023.0435  2024.7888
  2003.8459  2005.5911  2005.5911  2007.3364  2007.3364  2009.0816
  2009.0816  2010.8268  2010.8268  2012.5721  2012.5721  2014.3173
  2014.3173  2016.0626  2016.0626  2017.8078  2017.8078  2019.5530
  2019.5530  2021.2983  2021.2983  2023.0435  2023.0435  2024.7888
  2004.1949  2005.9402  2005.9402  2007.6854  2007.6854  2009.4307
  2009.4307  2011.1759  2011.1759  2012.9211  2012.9211  2014.6664
  2014.6664  2016.4116  2016.4116  2018.1569  2018.1569  2019.9021
  2019.9021  2021.6473  2021.6473  2023.3926  2023.3926  2025.1378
  2004.1949  2005.9402  2005.9402  2007.6854  2007.6854  2009.4307
  2009.4307  2011.1759  2011.1759  2012.9211  2012.9211  2014.6664
  2014.6664  2016.4116  2016.4116  2018.1569  2018.1569  2019.9021
  2019.9021  2021.6473  2021.6473  2023.3926  2023.3926  2025.1378
  2004.5440  2006.2892  2006.2892  2008.0345  2008.0345  2009.7797
  2009.7797  2011.5250  2011.5250  2013.2702  2013.2702  2015.0154
  2015.0154  2016.7607  2016.7607  2018.5059  2018.5059  2020.2512
  2020.2512  2021.9964  2021.9964  2023.7416  2023.7416  2025.4869
  2004.5440  2006.2892  2006.2892  2008.0345  2008.0345  2009.7797
  2009.7797  2011.5250  2011.5250  2013.2702  2013.2702  2015.0154
  2015.0154  2016.7607  2016.7607  2018.5059  2018.5059  2020.2512
  2020.2512  2021.9964  2021.9964  2023.7416  2023.7416  2025.4869
  2004.8931  2006.6383  2006.6383  2008.3835  2008.3835  2010.1288
  2010.1288  2011.8740  2011.8740  2013.6193  2013.6193  2015.3645
  2015.3645  2017.1098  2017.1098  2018.8550  2018.8550  2020.6002
  2020.6002  2022.3455  2022.3455  2024.0907  2024.0907  2025.8360
  2004.8931  2006.6383  2006.6383  2008.3835  2008.3835  2010.1288
  2010.1288  2011.8740  2011.8740  2013.6193  2013.6193  2015.3645
  2015.3645  2017.1098  2017.1098  2018.8550  2018.8550  2020.6002
  2020.6002  2022.3455  2022.3455  2024.0907  2024.0907  2025.8360
  2005.2421  2006.9874  2006.9874  2008.7326  2008.7326  2010.4779
  2010.4779  2012.2231  2012.2231  2013.9683  2013.9683  2015.7136
  2015.7136  2017.4588  2017.4588  2019.2041  2019.2041  2020.9493
  2020.9493  2022.6945  2022.6945  2024.4398  2024.4398  2026.1850
  2005.2421  2006.9874  2006.9874  2008.7326  2008.7326  2010.4779
  2010.4779  2012.2231  2012.2231  2013.9683  2013.9683  2015.7136
  2015.7136  2017.4588  2017.4588  2019.2041  2019.2041  2020.9493
  2020.9493  2022.6945  2022.6945  2024.4398  2024.4398  2026.1850
  2005.5912  2007.3364  2007.3364  2009.0817  2009.0817  2010.8269
  2010.8269  2012.5722  2012.5722  2014.3174  2014.3174  2016.0626
  2016.0626  2017.8079  2017.8079  2019.5531  2019.5531  2021.2984
  2021.2984  2023.0436  2023.0436  2024.7888  2024.7888  2026.5341
  2005.5912  2007.3364  2007.3364  2009.0817  2009.0817  2010.8269
  2010.8269  2012.5722  2012.5722  2014.3174  2014.3174  2016.0626
  2016.0626  2017.8079  2017.8079  2019.5531  2019.5531  2021.2984
  2021.2984  2023.0436  2023.0436  2024.7888  2024.7888  2026.5341
  2005.9403  2007.6855  2007.6855  2009.4307  2009.4307  2011.1760
  2011.1760  2012.9212  2012.9212  2014.6665  2014.6665  2016.4117
  2016.4117  2018.1569  2018.1569  2019.9022  2019.9022  2021.6474
  2021.6474  2023.3927  2023.3927  2025.1379  2025.1379  2026.8832
  2005.9403  2007.6855  2007.6855  2009.4307  2009.4307  2011.1760
  2011.1760  2012.9212  2012.9212  2014.6665  2014.6665  2016.4117
  2016.4117  2018.1569  2018.1569  2019.9022  2019.9022  2021.6474
  2021.6474  2023.3927  2023.3927  2025.1379  2025.1379  2026.8832
  2006.2893  2008.0346  2008.0346  2009.7798  2009.7798  2011.5251
  2011.5251  2013.2703  2013.2703  2015.0155  2015.0155  2016.7608
  2016.7608  2018.5060  2018.5060  2020.2513  2020.2513  2021.9965
  2021.9965  2023.7417  2023.7417  2025.4870  2025.4870  2027.2322
  2006.2893  2008.0346  2008.0346  2009.7798  2009.7798  2011.5251
  2011.5251  2013.2703  2013.2703  2015.0155  2015.0155  2016.7608
  2016.7608  2018.5060  2018.5060  2020.2513  2020.2513  2021.9965
  2021.9965  2023.7417  2023.7417  2025.4870  2025.4870  2027.2322
  2006.6384  2008.3836  2008.3836  2010.1289  2010.1289  2011.8741
  2011.8741  2013.6194  2013.6194  2015.3646  2015.3646  2017.1098
  2017.1098  2018.8551  2018.8551  2020.6003  2020.6003  2022.3456
  2022.3456  2024.0908  2024.0908  2025.8360  2025.8360  2027.5813
  2006.6384  2008.3836  2008.3836  2010.1289  2010.1289  2011.8741
  2011.8741  2013.6194  2013.6194  2015.3646  2015.3646  2017.1098
  2017.1098  2018.8551  2018.8551  2020.6003  2020.6003  2022.3456
  2022.3456  2024.0908  2024.0908  2025.8360  2025.8360  2027.5813
  2006.9875  2008.7327  2008.7327  2010.4779  2010.4779  2012.2232
  2012.2232  2013.9684  2013.9684  2015.7137  2015.7137  2017.4589
  2017.4589  2019.2041  2019.2041  2020.9494  2020.9494  2022.6946
  2022.6946  2024.4399  2024.4399  2026.1851  2026.1851  2027.9303
  2006.9875  2008.7327  2008.7327  2010.4779  2010.4779  2012.2232
  2012.2232  2013.9684  2013.9684  2015.7137  2015.7137  2017.4589
  2017.4589  2019.2041  2019.2041  2020.9494  2020.9494  2022.6946
  2022.6946  2024.4399  2024.4399  2026.1851  2026.1851  2027.9303
  2007.3365  2009.0818  2009.0818  2010.8270  2010.8270  2012.5722
  2012.5722  2014.3175  2014.3175  2016.0627  2016.0627  2017.8080
  2017.8080  2019.5532  2019.5532  2021.2984  2021.2984  2023.0437
  2023.0437  2024.7889  2024.7889  2026.5342  2026.5342  2028.2794
  2002.4496  2004.1949  2004.1949  2005.9401  2005.9401  2007.6853
  2007.6853  2009.4306  2009.4306  2011.1758  2011.1758  2012.9211
  2012.9211  2014.6663  2014.6663  2016.4115  2016.4115  2018.1568
  2018.1568  2019.9020  2019.9020  2021.6473  2021.6473  2023.3925
  2002.7987  2004.5439  2004.5439  2006.2892  2006.2892  2008.0344
  2008.0344  2009.7796  2009.7796  2011.5249  2011.5249  2013.2701
  2013.2701  2015.0154  2015.0154  2016.7606  2016.7606  2018.5058
  2018.5058  2020.2511  2020.2511  2021.9963  2021.9963  2023.7416
  2002.7987  2004.5439  2004.5439  2006.2892  2006.2892  2008.0344
  2008.0344  2009.7796  2009.7796  2011.5249  2011.5249  2013.2701
  2013.2701  2015.0154  2015.0154  2016.7606  2016.7606  2018.5058
  2018.5058  2020.2511  2020.2511  2021.9963  2021.9963  2023.7416
  2003.1477  2004.8930  2004.8930  2006.6382  2006.6382  2008.3835
  2008.3835  2010.1287  2010.1287  2011.8739  2011.8739  2013.6192
  2013.6192  2015.3644  2015.3644  2017.1097  2017.1097  2018.8549
  2018.8549  2020.6001  2020.6001  2022.3454  2022.3454  2024.0906
  2003.1477  2004.8930  2004.8930  2006.6382  2006.6382  2008.3835