-- This reservoir simulation deck is made available under the Open Database
-- License: http://opendatacommons.org/licenses/odbl/1.0/. Any rights in
-- individual contents of the database are licensed under the Database Contents
-- License: http://opendatacommons.org/licenses/dbcl/1.0/

-- Copyright (C) 2023 Equinor


SPECGRID
 10 12 5 1 F / 

COORD
  2000.0000  2000.0000  4200.0000   1999.9215  2000.0000  4217.4973 
  2099.9848  2000.0000  4201.7452   2099.9062  2000.0000  4219.2426 
  2199.9695  2000.0000  4203.4905   2199.8910  2000.0000  4220.9878 
  2299.9543  2000.0000  4205.2357   2299.8758  2000.0000  4222.7331 
  2399.9391  2000.0000  4206.9810   2399.8605  2000.0000  4224.4783 
  2499.9238  2000.0000  4208.7262   2499.8453  2000.0000  4226.2235 
  2599.9086  2000.0000  4210.4714   2599.8301  2000.0000  4227.9688 
  2699.8934  2000.0000  4212.2167   2699.8149  2000.0000  4229.7140 
  2799.8782  2000.0000  4213.9619   2799.7996  2000.0000  4231.4593 
  2899.8629  2000.0000  4215.7072   2899.7844  2000.0000  4233.2045 
  2999.8477  2000.0000  4217.4524   2999.7692  2000.0000  4234.9497 
  2000.0000  2100.0000  4200.0000   1999.9215  2100.0000  4217.4973 
  2099.9848  2100.0000  4201.7452   2099.9062  2100.0000  4219.2426 
  2199.9695  2100.0000  4203.4905   2199.8910  2100.0000  4220.9878 
  2299.9543  2100.0000  4205.2357   2299.8758  2100.0000  4222.7331 
  2399.9391  2100.0000  4206.9810   2399.8605  2100.0000  4224.4783 
  2499.9238  2100.0000  4208.7262   2499.8453  2100.0000  4226.2235 
  2599.9086  2100.0000  4210.4714   2599.8301  2100.0000  4227.9688 
  2699.8934  2100.0000  4212.2167   2699.8149  2100.0000  4229.7140 
  2799.8782  2100.0000  4213.9619   2799.7996  2100.0000  4231.4593 
  2899.8629  2100.0000  4215.7072   2899.7844  2100.0000  4233.2045 
  2999.8477  2100.0000  4217.4524   2999.7692  2100.0000  4234.9497 
  2000.0000  2200.0000  4200.0000   1999.9215  2200.0000  4217.4973 
  2099.9848  2200.0000  4201.7452   2099.9062  2200.0000  4219.2426 
  2199.9695  2200.0000  4203.4905   2199.8910  2200.0000  4220.9878 
  2299.9543  2200.0000  4205.2357   2299.8758  2200.0000  4222.7331 
  2399.9391  2200.0000  4206.9810   2399.8605  2200.0000  4224.4783 
  2499.9238  2200.0000  4208.7262   2499.8453  2200.0000  4226.2235 
  2599.9086  2200.0000  4210.4714   2599.8301  2200.0000  4227.9688 
  2699.8934  2200.0000  4212.2167   2699.8149  2200.0000  4229.7140 
  2799.8782  2200.0000  4213.9619   2799.7996  2200.0000  4231.4593 
  2899.8629  2200.0000  4215.7072   2899.7844  2200.0000  4233.2045 
  2999.8477  2200.0000  4217.4524   2999.7692  2200.0000  4234.9497 
  2000.0000  2300.0000  4200.0000   1999.9215  2300.0000  4217.4973 
  2099.9848  2300.0000  4201.7452   2099.9062  2300.0000  4219.2426 
  2199.9695  2300.0000  4203.4905   2199.8910  2300.0000  4220.9878 
  2299.9543  2300.0000  4205.2357   2299.8758  2300.0000  4222.7331 
  2399.9391  2300.0000  4206.9810   2399.8605  2300.0000  4224.4783 
  2499.9238  2300.0000  4208.7262   2499.8453  2300.0000  4226.2235 
  2599.9086  2300.0000  4210.4714   2599.8301  2300.0000  4227.9688 
  2699.8934  2300.0000  4212.2167   2699.8149  2300.0000  4229.7140 
  2799.8782  2300.0000  4213.9619   2799.7996  2300.0000  4231.4593 
  2899.8629  2300.0000  4215.7072   2899.7844  2300.0000  4233.2045 
  2999.8477  2300.0000  4217.4524   2999.7692  2300.0000  4234.9497 
  2000.0000  2400.0000  4200.0000   1999.9215  2400.0000  4217.4973 
  2099.9848  2400.0000  4201.7452   2099.9062  2400.0000  4219.2426 
  2199.9695  2400.0000  4203.4905   2199.8910  2400.0000  4220.9878 
  2299.9543  2400.0000  4205.2357   2299.8758  2400.0000  4222.7331 
  2399.9391  2400.0000  4206.9810   2399.8605  2400.0000  4224.4783 
  2499.9238  2400.0000  4208.7262   2499.8453  2400.0000  4226.2235 
  2599.9086  2400.0000  4210.4714   2599.8301  2400.0000  4227.9688 
  2699.8934  2400.0000  4212.2167   2699.8149  2400.0000  4229.7140 
  2799.8782  2400.0000  4213.9619   2799.7996  2400.0000  4231.4593 
  2899.8629  2400.0000  4215.7072   2899.7844  2400.0000  4233.2045 
  2999.8477  2400.0000  4217.4524   2999.7692  2400.0000  4234.9497 
  2000.0000  2500.0000  4200.0000   1999.9215  2500.0000  4217.4973 
  2099.9848  2500.0000  4201.7452   2099.9062  2500.0000  4219.2426 
  2199.9695  2500.0000  4203.4905   2199.8910  2500.0000  4220.9878 
  2299.9543  2500.0000  4205.2357   2299.8758  2500.0000  4222.7331 
  2399.9391  2500.0000  4206.9810   2399.8605  2500.0000  4224.4783 
  2499.9238  2500.0000  4208.7262   2499.8453  2500.0000  4226.2235 
  2599.9086  2500.0000  4210.4714   2599.8301  2500.0000  4227.9688 
  2699.8934  2500.0000  4212.2167   2699.8149  2500.0000  4229.7140 
  2799.8782  2500.0000  4213.9619   2799.7996  2500.0000  4231.4593 
  2899.8629  2500.0000  4215.7072   2899.7844  2500.0000  4233.2045 
  2999.8477  2500.0000  4217.4524   2999.7692  2500.0000  4234.9497 
  2000.0000  2600.0000  4200.0000   1999.9215  2600.0000  4217.4973 
  2099.9848  2600.0000  4201.7452   2099.9062  2600.0000  4219.2426 
  2199.9695  2600.0000  4203.4905   2199.8910  2600.0000  4220.9878 
  2299.9543  2600.0000  4205.2357   2299.8758  2600.0000  4222.7331 
  2399.9391  2600.0000  4206.9810   2399.8605  2600.0000  4224.4783 
  2499.9238  2600.0000  4208.7262   2499.8453  2600.0000  4226.2235 
  2599.9086  2600.0000  4210.4714   2599.8301  2600.0000  4227.9688 
  2699.8934  2600.0000  4212.2167   2699.8149  2600.0000  4229.7140 
  2799.8782  2600.0000  4213.9619   2799.7996  2600.0000  4231.4593 
  2899.8629  2600.0000  4215.7072   2899.7844  2600.0000  4233.2045 
  2999.8477  2600.0000  4217.4524   2999.7692  2600.0000  4234.9497 
  2000.0000  2700.0000  4200.0000   1999.9215  2700.0000  4217.4973 
  2099.9848  2700.0000  4201.7452   2099.9062  2700.0000  4219.2426 
  2199.9695  2700.0000  4203.4905   2199.8910  2700.0000  4220.9878 
  2299.9543  2700.0000  4205.2357   2299.8758  2700.0000  4222.7331 
  2399.9391  2700.0000  4206.9810   2399.8605  2700.0000  4224.4783 
  2499.9238  2700.0000  4208.7262   2499.8453  2700.0000  4226.2235 
  2599.9086  2700.0000  4210.4714   2599.8301  2700.0000  4227.9688 
  2699.8934  2700.0000  4212.2167   2699.8149  2700.0000  4229.7140 
  2799.8782  2700.0000  4213.9619   2799.7996  2700.0000  4231.4593 
  2899.8629  2700.0000  4215.7072   2899.7844  2700.0000  4233.2045 
  2999.8477  2700.0000  4217.4524   2999.7692  2700.0000  4234.9497 
  2000.0000  2800.0000  4200.0000   1999.9215  2800.0000  4217.4973 
  2099.9848  2800.0000  4201.7452   2099.9062  2800.0000  4219.2426 
  2199.9695  2800.0000  4203.4905   2199.8910  2800.0000  4220.9878 
  2299.9543  2800.0000  4205.2357   2299.8758  2800.0000  4222.7331 
  2399.9391  2800.0000  4206.9810   2399.8605  2800.0000  4224.4783 
  2499.9238  2800.0000  4208.7262   2499.8453  2800.0000  4226.2235 
  2599.9086  2800.0000  4210.4714   2599.8301  2800.0000  4227.9688 
  2699.8934  2800.0000  4212.2167   2699.8149  2800.0000  4229.7140 
  2799.8782  2800.0000  4213.9619   2799.7996  2800.0000  4231.4593 
  2899.8629  2800.0000  4215.7072   2899.7844  2800.0000  4233.2045 
  2999.8477  2800.0000  4217.4524   2999.7692  2800.0000  4234.9497 
  2000.0000  2900.0000  4200.0000   1999.9215  2900.0000  4217.4973 
  2099.9848  2900.0000  4201.7452   2099.9062  2900.0000  4219.2426 
  2199.9695  2900.0000  4203.4905   2199.8910  2900.0000  4220.9878 
  2299.9543  2900.0000  4205.2357   2299.8758  2900.0000  4222.7331 
  2399.9391  2900.0000  4206.9810   2399.8605  2900.0000  4224.4783 
  2499.9238  2900.0000  4208.7262   2499.8453  2900.0000  4226.2235 
  2599.9086  2900.0000  4210.4714   2599.8301  2900.0000  4227.9688 
  2699.8934  2900.0000  4212.2167   2699.8149  2900.0000  4229.7140 
  2799.8782  2900.0000  4213.9619   2799.7996  2900.0000  4231.4593 
  2899.8629  2900.0000  4215.7072   2899.7844  2900.0000  4233.2045 
  2999.8477  2900.0000  4217.4524   2999.7692  2900.0000  4234.9497 
  2000.0000  3000.0000  4200.0000   1999.9215  3000.0000  4217.4973 
  2099.9848  3000.0000  4201.7452   2099.9062  3000.0000  4219.2426 
  2199.9695  3000.0000  4203.4905   2199.8910  3000.0000  4220.9878 
  2299.9543  3000.0000  4205.2357   2299.8758  3000.0000  4222.7331 
  2399.9391  3000.0000  4206.9810   2399.8605  3000.0000  4224.4783 
  2499.9238  3000.0000  4208.7262   2499.8453  3000.0000  4226.2235 
  2599.9086  3000.0000  4210.4714   2599.8301  3000.0000  4227.9688 
  2699.8934  3000.0000  4212.2167   2699.8149  3000.0000  4229.7140 
  2799.8782  3000.0000  4213.9619   2799.7996  3000.0000  4231.4593 
  2899.8629  3000.0000  4215.7072   2899.7844  3000.0000  4233.2045 
  2999.8477  3000.0000  4217.4524   2999.7692  3000.0000  4234.9497 
  2000.0000  3100.0000  4200.0000   1999.9215  3100.0000  4217.4973 
  2099.9848  3100.0000  4201.7452   2099.9062  3100.0000  4219.2426 
  2199.9695  3100.0000  4203.4905   2199.8910  3100.0000  4220.9878 
  2299.9543  3100.0000  4205.2357   2299.8758  3100.0000  4222.7331 
  2399.9391  3100.0000  4206.9810   2399.8605  3100.0000  4224.4783 
  2499.9238  3100.0000  4208.7262   2499.8453  3100.0000  4226.2235 
  2599.9086  3100.0000  4210.4714   2599.8301  3100.0000  4227.9688 
  2699.8934  3100.0000  4212.2167   2699.8149  3100.0000  4229.7140 
  2799.8782  3100.0000  4213.9619   2799.7996  3100.0000  4231.4593 
  2899.8629  3100.0000  4215.7072   2899.7844  3100.0000  4233.2045 
  2999.8477  3100.0000  4217.4524   2999.7692  3100.0000  4234.9497 
  2000.0000  3200.0000  4200.0000   1999.9215  3200.0000  4217.4973 
  2099.9848  3200.0000  4201.7452   2099.9062  3200.0000  4219.2426 
  2199.9695  3200.0000  4203.4905   2199.8910  3200.0000  4220.9878 
  2299.9543  3200.0000  4205.2357   2299.8758  3200.0000  4222.7331 
  2399.9391  3200.0000  4206.9810   2399.8605  3200.0000  4224.4783 
  2499.9238  3200.0000  4208.7262   2499.8453  3200.0000  4226.2235 
  2599.9086  3200.0000  4210.4714   2599.8301  3200.0000  4227.9688 
  2699.8934  3200.0000  4212.2167   2699.8149  3200.0000  4229.7140 
  2799.8782  3200.0000  4213.9619   2799.7996  3200.0000  4231.4593 
  2899.8629  3200.0000  4215.7072   2899.7844  3200.0000  4233.2045 
  2999.8477  3200.0000  4217.4524   2999.7692  3200.0000  4234.9497 
/ 

ZCORN
  4200.0000  4201.7452  4201.7452  4203.4905  4203.4905  4205.2357
  4205.2357  4206.9810  4206.9810  4208.7262  4208.7262  4210.4714
  4210.4714  4212.2167  4212.2167  4213.9619  4213.9619  4215.7072
  4215.7072  4217.4524  4200.0000  4201.7452  4201.7452  4203.4905
  4203.4905  4205.2357  4205.2357  4206.9810  4206.9810  4208.7262
  4208.7262  4210.4714  4210.4714  4212.2167  4212.2167  4213.9619
  4213.9619  4215.7072  4215.7072  4217.4524  4200.0000  4201.7452
  4201.7452  4203.4905  4203.4905  4205.2357  4205.2357  4206.9810
  4206.9810  4208.7262  4208.7262  4210.4714  4210.4714  4212.2167
  4212.2167  4213.9619  4213.9619  4215.7072  4215.7072  4217.4524
  4200.0000  4201.7452  4201.7452  4203.4905  4203.4905  4205.2357
  4205.2357  4206.9810  4206.9810  4208.7262  4208.7262  4210.4714
  4210.4714  4212.2167  4212.2167  4213.9619  4213.9619  4215.7072
  4215.7072  4217.4524  4200.0000  4201.7452  4201.7452  4203.4905
  4203.4905  4205.2357  4205.2357  4206.9810  4206.9810  4208.7262
  4208.7262  4210.4714  4210.4714  4212.2167  4212.2167  4213.9619
  4213.9619  4215.7072  4215.7072  4217.4524  4200.0000  4201.7452
  4201.7452  4203.4905  4203.4905  4205.2357  4205.2357  4206.9810
  4206.9810  4208.7262  4208.7262  4210.4714  4210.4714  4212.2167
  4212.2167  4213.9619  4213.9619  4215.7072  4215.7072  4217.4524
  4200.0000  4201.7452  4201.7452  4203.4905  4203.4905  4205.2357
  4205.2357  4206.9810  4206.9810  4208.7262  4208.7262  4210.4714
  4210.4714  4212.2167  4212.2167  4213.9619  4213.9619  4215.7072
  4215.7072  4217.4524  4200.0000  4201.7452  4201.7452  4203.4905
  4203.4905  4205.2357  4205.2357  4206.9810  4206.9810  4208.7262
  4208.7262  4210.4714  4210.4714  4212.2167  4212.2167  4213.9619
  4213.9619  4215.7072  4215.7072  4217.4524  4200.0000  4201.7452
  4201.7452  4203.4905  4203.4905  4205.2357  4205.2357  4206.9810
  4206.9810  4208.7262  4208.7262  4210.4714  4210.4714  4212.2167
  4212.2167  4213.9619  4213.9619  4215.7072  4215.7072  4217.4524
  4200.0000  4201.7452  4201.7452  4203.4905  4203.4905  4205.2357
  4205.2357  4206.9810  4206.9810  4208.7262  4208.7262  4210.4714
  4210.4714  4212.2167  4212.2167  4213.9619  4213.9619  4215.7072
  4215.7072  4217.4524  4200.0000  4201.7452  4201.7452  4203.4905
  4203.4905  4205.2357  4205.2357  4206.9810  4206.9810  4208.7262
  4208.7262  4210.4714  4210.4714  4212.2167  4212.2167  4213.9619
  4213.9619  4215.7072  4215.7072  4217.4524  4200.0000  4201.7452
  4201.7452  4203.4905  4203.4905  4205.2357  4205.2357  4206.9810
  4206.9810  4208.7262  4208.7262  4210.4714  4210.4714  4212.2167
  4212.2167  4213.9619  4213.9619  4215.7072  4215.7072  4217.4524
  4200.0000  4201.7452  4201.7452  4203.4905  4203.4905  4205.2357
  4205.2357  4206.9810  4206.9810  4208.7262  4208.7262  4210.4714
  4210.4714  4212.2167  4212.2167  4213.9619  4213.9619  4215.7072
  4215.7072  4217.4524  4200.0000  4201.7452  4201.7452  4203.4905
  4203.4905  4205.2357  4205.2357  4206.9810  4206.9810  4208.7262
  4208.7262  4210.4714  4210.4714  4212.2167  4212.2167  4213.9619
  4213.9619  4215.7072  4215.7072  4217.4524  4200.0000  4201.7452
  4201.7452  4203.4905  4203.4905  4205.2357  4205.2357  4206.9810
  4206.9810  4208.7262  4208.7262  4210.4714  4210.4714  4212.2167
  4212.2167  4213.9619  4213.9619  4215.7072  4215.7072  4217.4524
  4200.0000  4201.7452  4201.7452  4203.4905  4203.4905  4205.2357
  4205.2357  4206.9810  4206.9810  4208.7262  4208.7262  4210.4714
  4210.4714  4212.2167  4212.2167  4213.9619  4213.9619  4215.7072
  4215.7072  4217.4524  4200.0000  4201.7452  4201.7452  4203.4905
  4203.4905  4205.2357  4205.2357  4206.9810  4206.9810  4208.7262
  4208.7262  4210.4714  4210.4714  4212.2167  4212.2167  4213.9619
  4213.9619  4215.7072  4215.7072  4217.4524  4200.0000  4201.7452
  4201.7452  4203.4905  4203.4905  4205.2357  4205.2357  4206.9810
  4206.9810  4208.7262  4208.7262  4210.4714  4210.4714  4212.2167
  4212.2167  4213.9619  4213.9619  4215.7072  4215.7072  4217.4524
  4200.0000  4201.7452  4201.7452  4203.4905  4203.4905  4205.2357
  4205.2357  4206.9810  4206.9810  4208.7262  4208.7262  4210.4714
  4210.4714  4212.2167  4212.2167  4213.9619  4213.9619  4215.7072
  4215.7072  4217.4524  4200.0000  4201.7452  4201.7452  4203.4905
  4203.4905  4205.2357  4205.2357  4206.9810  4206.9810  4208.7262
  4208.7262  4210.4714  4210.4714  4212.2167  4212.2167  4213.9619
  4213.9619  4215.7072  4215.7072  4217.4524  4200.0000  4201.7452
  4201.7452  4203.4905  4203.4905  4205.2357  4205.2357  4206.9810
  4206.9810  4208.7262  4208.7262  4210.4714  4210.4714  4212.2167
  4212.2167  4213.9619  4213.9619  4215.7072  4215.7072  4217.4524
  4200.0000  4201.7452  4201.7452  4203.4905  4203.4905  4205.2357
  4205.2357  4206.9810  4206.9810  4208.7262  4208.7262  4210.4714
  4210.4714  4212.2167  4212.2167  4213.9619  4213.9619  4215.7072
  4215.7072  4217.4524  4200.0000  4201.7452  4201.7452  4203.4905
  4203.4905  4205.2357  4205.2357  4206.9810  4206.9810  4208.7262
  4208.7262  4210.4714  4210.4714  4212.2167  4212.2167  4213.9619
  4213.9619  4215.7072  4215.7072  4217.4524  4200.0000  4201.7452
  4201.7452  4203.4905  4203.4905  4205.2357  4205.2357  4206.9810
  4206.9810  4208.7262  4208.7262  4210.4714  4210.4714  4212.2167
  4212.2167  4213.9619  4213.9619  4215.7072  4215.7072  4217.4524
  4202.4996  4204.2449  4204.2449  4205.9901  4205.9901  4207.7353
  4207.7353  4209.4806  4209.4806  4211.2258  4211.2258  4212.9711
  4212.9711  4214.7163  4214.7163  4216.4615  4216.4615  4218.2068
  4218.2068  4219.9520  4202.4996  4204.2449  4204.2449  4205.9901
  4205.9901  4207.7353  4207.7353  4209.4806  4209.4806  4211.2258
  4211.2258  4212.9711  4212.9711  4214.7163  4214.7163  4216.4615
  4216.4615  4218.2068  4218.2068  4219.9520  4202.4996  4204.2449
  4204.2449  4205.9901  4205.9901  4207.7353  4207.7353  4209.4806
  4209.4806  4211.2258  4211.2258  4212.9711  4212.9711  4214.7163
  4214.7163  4216.4615  4216.4615  4218.2068  4218.2068  4219.9520
  4202.4996  4204.2449  4204.2449  4205.9901  4205.9901  4207.7353
  4207.7353  4209.4806  4209.4806  4211.2258  4211.2258  4212.9711
  4212.9711  4214.7163  4214.7163  4216.4615  4216.4615  4218.2068
  4218.2068  4219.9520  4202.4996  4204.2449  4204.2449  4205.9901
  4205.9901  4207.7353  4207.7353  4209.4806  4209.4806  4211.2258
  4211.2258  4212.9711  4212.9711  4214.7163  4214.7163  4216.4615
  4216.4615  4218.2068  4218.2068  4219.9520  4202.4996  4204.2449
  4204.2449  4205.9901  4205.9901  4207.7353  4207.7353  4209.4806
  4209.4806  4211.2258  4211.2258  4212.9711  4212.9711  4214.7163
  4214.7163  4216.4615  4216.4615  4218.2068  4218.2068  4219.9520
  4202.4996  4204.2449  4204.2449  4205.9901  4205.9901  4207.7353
  4207.7353  4209.4806  4209.4806  4211.2258  4211.2258  4212.9711
  4212.9711  4214.7163  4214.7163  4216.4615  4216.4615  4218.2068
  4218.2068  4219.9520  4202.4996  4204.2449  4204.2449  4205.9901
  4205.9901  4207.7353  4207.7353  4209.4806  4209.4806  4211.2258
  4211.2258  4212.9711  4212.9711  4214.7163  4214.7163  4216.4615
  4216.4615  4218.2068  4218.2068  4219.9520  4202.4996  4204.2449
  4204.2449  4205.9901  4205.9901  4207.7353  4207.7353  4209.4806
  4209.4806  4211.2258  4211.2258  4212.9711  4212.9711  4214.7163
  4214.7163  4216.4615  4216.4615  4218.2068  4218.2068  4219.9520
  4202.4996  4204.2449  4204.2449  4205.9901  4205.9901  4207.7353
  4207.7353  4209.4806  4209.4806  4211.2258  4211.2258  4212.9711
  4212.9711  4214.7163  4214.7163  4216.4615  4216.4615  4218.2068
  4218.2068  4219.9520  4202.4996  4204.2449  4204.2449  4205.9901
  4205.9901  4207.7353  4207.7353  4209.4806  4209.4806  4211.2258
  4211.2258  4212.9711  4212.9711  4214.7163  4214.7163  4216.4615
  4216.4615  4218.2068  4218.2068  4219.9520  4202.4996  4204.2449
  4204.2449  4205.9901  4205.9901  4207.7353  4207.7353  4209.4806
  4209.4806  4211.2258  4211.2258  4212.9711  4212.9711  4214.7163
  4214.7163  4216.4615  4216.4615  4218.2068  4218.2068  4219.9520
  4202.4996  4204.2449  4204.2449  4205.9901  4205.9901  4207.7353
  4207.7353  4209.4806  4209.4806  4211.2258  4211.2258  4212.9711
  4212.9711  4214.7163  4214.7163  4216.4615  4216.4615  4218.2068
  4218.2068  4219.9520  4202.4996  4204.2449  4204.2449  4205.9901
  4205.9901  4207.7353  4207.7353  4209.4806  4209.4806  4211.2258
  4211.2258  4212.9711  4212.9711  4214.7163  4214.7163  4216.4615
  4216.4615  4218.2068  4218.2068  4219.9520  4202.4996  4204.2449
  4204.2449  4205.9901  4205.9901  4207.7353  4207.7353  4209.4806
  4209.4806  4211.2258  4211.2258  4212.9711  4212.9711  4214.7163
  4214.7163  4216.4615  4216.4615  4218.2068  4218.2068  4219.9520
  4202.4996  4204.2449  4204.2449  4205.9901  4205.9901  4207.7353
  4207.7353  4209.4806  4209.4806  4211.2258  4211.2258  4212.9711
  4212.9711  4214.7163  4214.7163  4216.4615  4216.4615  4218.2068
  4218.2068  4219.9520  4202.4996  4204.2449  4204.2449  4205.9901
  4205.9901  4207.7353  4207.7353  4209.4806  4209.4806  4211.2258
  4211.2258  4212.9711  4212.9711  4214.7163  4214.7163  4216.4615
  4216.4615  4218.2068  4218.2068  4219.9520  4202.4996  4204.2449
  4204.2449  4205.9901  4205.9901  4207.7353  4207.7353  4209.4806
  4209.4806  4211.2258  4211.2258  4212.9711  4212.9711  4214.7163
  4214.7163  4216.4615  4216.4615  4218.2068  4218.2068  4219.9520
  4202.4996  4204.2449  4204.2449  4205.9901  4205.9901  4207.7353
  4207.7353  4209.4806  4209.4806  4211.2258  4211.2258  4212.9711
  4212.9711  4214.7163  4214.7163  4216.4615  4216.4615  4218.2068
  4218.2068  4219.9520  4202.4996  4204.2449  4204.2449  4205.9901
  4205.9901  4207.7353  4207.7353  4209.4806  4209.4806  4211.2258
  4211.2258  4212.9711  4212.9711  4214.7163  4214.7163  4216.4615
  4216.4615  4218.2068  4218.2068  4219.9520  4202.4996  4204.2449
  4204.2449  4205.9901  4205.9901  4207.7353  4207.7353  4209.4806
  4209.4806  4211.2258  4211.2258  4212.9711  4212.9711  4214.7163
  4214.7163  4216.4615  4216.4615  4218.2068  4218.2068  4219.9520
  4202.4996  4204.2449  4204.2449  4205.9901  4205.9901  4207.7353
  4207.7353  4209.4806  4209.4806  4211.2258  4211.2258  4212.9711
  4212.9711  4214.7163  4214.7163  4216.4615  4216.4615  4218.2068
  4218.2068  4219.9520  4202.4996  4204.2449  4204.2449  4205.9901
  4205.9901  4207.7353  4207.7353  4209.4806  4209.4806  4211.2258
  4211.2258  4212.9711  4212.9711  4214.7163  4214.7163  4216.4615
  4216.4615  4218.2068  4218.2068  4219.9520  4202.4996  4204.2449
  4204.2449  4205.9901  4205.9901  4207.7353  4207.7353  4209.4806
  4209.4806  4211.2258  4211.2258  4212.9711  4212.9711  4214.7163
  4214.7163  4216.4615  4216.4615  4218.2068  4218.2068  4219.9520
  4202.4996  4204.2449  4204.2449  4205.9901  4205.9901  4207.7353
  4207.7353  4209.4806  4209.4806  4211.2258  4211.2258  4212.9711
  4212.9711  4214.7163  4214.7163  4216.4615  4216.4615  4218.2068
  4218.2068  4219.9520  4202.4996  4204.2449  4204.2449  4205.9901
  4205.9901  4207.7353  4207.7353  4209.4806  4209.4806  4211.2258
  4211.2258  4212.9711  4212.9711  4214.7163  4214.7163  4216.4615
  4216.4615  4218.2068  4218.2068  4219.9520  4202.4996  4204.2449
  4204.2449  4205.9901  4205.9901  4207.7353  4207.7353  4209.4806
  4209.4806  4211.2258  4211.2258  4212.9711  4212.9711  4214.7163
  4214.7163  4216.4615  4216.4615  4218.2068  4218.2068  4219.9520
  4202.4996  4204.2449  4204.2449  4205.9901  4205.9901  4207.7353
  4207.7353  4209.4806  4209.4806  4211.2258  4211.2258  4212.9711
  4212.9711  4214.7163  4214.7163  4216.4615  4216.4615  4218.2068
  4218.2068  4219.9520  4202.4996  4204.2449  4204.2449  4205.9901
  4205.9901  4207.7353  4207.7353  4209.4806  4209.4806  4211.2258
  4211.2258  4212.9711  4212.9711  4214.7163  4214.7163  4216.4615
  4216.4615  4218.2068  4218.2068  4219.9520  4202.4996  4204.2449
  4204.2449  4205.9901  4205.9901  4207.7353  4207.7353  4209.4806
  4209.4806  4211.2258  4211.2258  4212.9711  4212.9711  4214.7163
  4214.7163  4216.4615  4216.4615  4218.2068  4218.2068  4219.9520
  4202.4996  4204.2449  4204.2449  4205.9901  4205.9901  4207.7353
  4207.7353  4209.4806  4209.4806  4211.2258  4211.2258  4212.9711
  4212.9711  4214.7163  4214.7163  4216.4615  4216.4615  4218.2068
  4218.2068  4219.9520  4202.4996  4204.2449  4204.2449  4205.9901
  4205.9901  4207.7353  4207.7353  4209.4806  4209.4806  4211.2258
  4211.2258  4212.9711  4212.9711  4214.7163  4214.7163  4216.4615
  4216.4615  4218.2068  4218.2068  4219.9520  4202.4996  4204.2449
  4204.2449  4205.9901  4205.9901  4207.7353  4207.7353  4209.4806
  4209.4806  4211.2258  4211.2258  4212.9711  4212.9711  4214.7163
  4214.7163  4216.4615  4216.4615  4218.2068  4218.2068  4219.9520
  4202.4996  4204.2449  4204.2449  4205.9901  4205.9901  4207.7353
  4207.7353  4209.4806  4209.4806  4211.2258  4211.2258  4212.9711
  4212.9711  4214.7163  4214.7163  4216.4615  4216.4615  4218.2068
  4218.2068  4219.9520  4202.4996  4204.2449  4204.2449  4205.9901
  4205.9901  4207.7353  4207.7353  4209.4806  4209.4806  4211.2258
  4211.2258  4212.9711  4212.9711  4214.7163  4214.7163  4216.4615
  4216.4615  4218.2068  4218.2068  4219.9520  4202.4996  4204.2449
  4204.2449  4205.9901  4205.9901  4207.7353  4207.7353  4209.4806
  4209.4806  4211.2258  4211.2258  4212.9711  4212.9711  4214.7163
  4214.7163  4216.4615  4216.4615  4218.2068  4218.2068  4219.9520
  4202.4996  4204.2449  4204.2449  4205.9901  4205.9901  4207.7353
  4207.7353  4209.4806  4209.4806  4211.2258  4211.2258  4212.9711
  4212.9711  4214.7163  4214.7163  4216.4615  4216.4615  4218.2068
  4218.2068  4219.9520  4202.4996  4204.2449  4204.2449  4205.9901
  4205.9901  4207.7353  4207.7353  4209.4806  4209.4806  4211.2258
  4211.2258  4212.9711  4212.9711  4214.7163  4214.7163  4216.4615
  4216.4615  4218.2068  4218.2068  4219.9520  4202.4996  4204.2449
  4204.2449  4205.9901  4205.9901  4207.7353  4207.7353  4209.4806
  4209.4806  4211.2258  4211.2258  4212.9711  4212.9711  4214.7163
  4214.7163  4216.4615  4216.4615  4218.2068  4218.2068  4219.9520
  4202.4996  4204.2449  4204.2449  4205.9901  4205.9901  4207.7353
  4207.7353  4209.4806  4209.4806  4211.2258  4211.2258  4212.9711
  4212.9711  4214.7163  4214.7163  4216.4615  4216.4615  4218.2068
  4218.2068  4219.9520  4202.4996  4204.2449  4204.2449  4205.9901
  4205.9901  4207.7353  4207.7353  4209.4806  4209.4806  4211.2258
  4211.2258  4212.9711  4212.9711  4214.7163  4214.7163  4216.4615
  4216.4615  4218.2068  4218.2068  4219.9520  4202.4996  4204.2449
  4204.2449  4205.9901  4205.9901  4207.7353  4207.7353  4209.4806
  4209.4806  4211.2258  4211.2258  4212.9711  4212.9711  4214.7163
  4214.7163  4216.4615  4216.4615  4218.2068  4218.2068  4219.9520
  4202.4996  4204.2449  4204.2449  4205.9901  4205.9901  4207.7353
  4207.7353  4209.4806  4209.4806  4211.2258  4211.2258  4212.9711
  4212.9711  4214.7163  4214.7163  4216.4615  4216.4615  4218.2068
  4218.2068  4219.9520  4202.4996  4204.2449  4204.2449  4205.9901
  4205.9901  4207.7353  4207.7353  4209.4806  4209.4806  4211.2258
  4211.2258  4212.9711  4212.9711  4214.7163  4214.7163  4216.4615
  4216.4615  4218.2068  4218.2068  4219.9520  4202.4996  4204.2449
  4204.2449  4205.9901  4205.9901  4207.7353  4207.7353  4209.4806
  4209.4806  4211.2258  4211.2258  4212.9711  4212.9711  4214.7163
  4214.7163  4216.4615  4216.4615  4218.2068  4218.2068  4219.9520
  4202.4996  4204.2449  4204.2449  4205.9901  4205.9901  4207.7353
  4207.7353  4209.4806  4209.4806  4211.2258  4211.2258  4212.9711
  4212.9711  4214.7163  4214.7163  4216.4615  4216.4615  4218.2068
  4218.2068  4219.9520  4202.4996  4204.2449  4204.2449  4205.9901
  4205.9901  4207.7353  4207.7353  4209.4806  4209.4806  4211.2258
  4211.2258  4212.9711  4212.9711  4214.7163  4214.7163  4216.4615
  4216.4615  4218.2068  4218.2068  4219.9520  4202.4996  4204.2449
  4204.2449  4205.9901  4205.9901  4207.7353  4207.7353  4209.4806
  4209.4806  4211.2258  4211.2258  4212.9711  4212.9711  4214.7163
  4214.7163  4216.4615  4216.4615  4218.2068  4218.2068  4219.9520
  4205.4992  4207.2444  4207.2444  4208.9896  4208.9896  4210.7349
  4210.7349  4212.4801  4212.4801  4214.2254  4214.2254  4215.9706
  4215.9706  4217.7158  4217.7158  4219.4611  4219.4611  4221.2063
  4221.2063  4222.9516  4205.4992  4207.2444  4207.2444  4208.9896
  4208.9896  4210.7349  4210.7349  4212.4801  4212.4801  4214.2254
  4214.2254  4215.9706  4215.9706  4217.7158  4217.7158  4219.4611
  4219.4611  4221.2063  4221.2063  4222.9516  4205.4992  4207.2444
  4207.2444  4208.9896  4208.9896  4210.7349  4210.7349  4212.4801
  4212.4801  4214.2254  4214.2254  4215.9706  4215.9706  4217.7158
  4217.7158  4219.4611  4219.4611  4221.2063  4221.2063  4222.9516
  4205.4992  4207.2444  4207.2444  4208.9896  4208.9896  4210.7349
  4210.7349  4212.4801  4212.4801  4214.2254  4214.2254  4215.9706
  4215.9706  4217.7158  4217.7158  4219.4611  4219.4611  4221.2063
  4221.2063  4222.9516  4205.4992  4207.2444  4207.2444  4208.9896
  4208.9896  4210.7349  4210.7349  4212.4801  4212.4801  4214.2254
  4214.2254  4215.9706  4215.9706  4217.7158  4217.7158  4219.4611
  4219.4611  4221.2063  4221.2063  4222.9516  4205.4992  4207.2444
  4207.2444  4208.9896  4208.9896  4210.7349  4210.7349  4212.4801
  4212.4801  4214.2254  4214.2254  4215.9706  4215.9706  4217.7158
  4217.7158  4219.4611  4219.4611  4221.2063  4221.2063  4222.9516
  4205.4992  4207.2444  4207.2444  4208.9896  4208.9896  4210.7349
  4210.7349  4212.4801  4212.4801  4214.2254  4214.2254  4215.9706
  4215.9706  4217.7158  4217.7158  4219.4611  4219.4611  4221.2063
  4221.2063  4222.9516  4205.4992  4207.2444  4207.2444  4208.9896
  4208.9896  4210.7349  4210.7349  4212.4801  4212.4801  4214.2254
  4214.2254  4215.9706  4215.9706  4217.7158  4217.7158  4219.4611
  4219.4611  4221.2063  4221.2063  4222.9516  4205.4992  4207.2444
  4207.2444  4208.9896  4208.9896  4210.7349  4210.7349  4212.4801
  4212.4801  4214.2254  4214.2254  4215.9706  4215.9706  4217.7158
  4217.7158  4219.4611  4219.4611  4221.2063  4221.2063  4222.9516
  4205.4992  4207.2444  4207.2444  4208.9896  4208.9896  4210.7349
  4210.7349  4212.4801  4212.4801  4214.2254  4214.2254  4215.9706
  4215.9706  4217.7158  4217.7158  4219.4611  4219.4611  4221.2063
  4221.2063  4222.9516  4205.4992  4207.2444  4207.2444  4208.9896
  4208.9896  4210.7349  4210.7349  4212.4801  4212.4801  4214.2254
  4214.2254  4215.9706  4215.9706  4217.7158  4217.7158  4219.4611
  4219.4611  4221.2063  4221.2063  4222.9516  4205.4992  4207.2444
  4207.2444  4208.9896  4208.9896  4210.7349  4210.7349  4212.4801
  4212.4801  4214.2254  4214.2254  4215.9706  4215.9706  4217.7158
  4217.7158  4219.4611  4219.4611  4221.2063  4221.2063  4222.9516
  4205.4992  4207.2444  4207.2444  4208.9896  4208.9896  4210.7349
  4210.7349  4212.4801  4212.4801  4214.2254  4214.2254  4215.9706
  4215.9706  4217.7158  4217.7158  4219.4611  4219.4611  4221.2063
  4221.2063  4222.9516  4205.4992  4207.2444  4207.2444  4208.9896
  4208.9896  4210.7349  4210.7349  4212.4801  4212.4801  4214.2254
  4214.2254  4215.9706  4215.9706  4217.7158  4217.7158  4219.4611
  4219.4611  4221.2063  4221.2063  4222.9516  4205.4992  4207.2444
  4207.2444  4208.9896  4208.9896  4210.7349  4210.7349  4212.4801
  4212.4801  4214.2254  4214.2254  4215.9706  4215.9706  4217.7158
  4217.7158  4219.4611  4219.4611  4221.2063  4221.2063  4222.9516
  4205.4992  4207.2444  4207.2444  4208.9896  4208.9896  4210.7349
  4210.7349  4212.4801  4212.4801  4214.2254  4214.2254  4215.9706
  4215.9706  4217.7158  4217.7158  4219.4611  4219.4611  4221.2063
  4221.2063  4222.9516  4205.4992  4207.2444  4207.2444  4208.9896
  4208.9896  4210.7349  4210.7349  4212.4801  4212.4801  4214.2254