-- This reservoir simulation deck is made available under the Open Database
-- License: http://opendatacommons.org/licenses/odbl/1.0/. Any rights in
-- individual contents of the database are licensed under the Database Contents
-- License: http://opendatacommons.org/licenses/dbcl/1.0/

-- Copyright (C) 2024 Equinor 



SPECGRID
 12 33 14 1 F /

COORD
 459994.1239 7323183.4231 2626.4840 459972.0944 7323233.2647 2713.4560
 460037.6706 7323143.5802 2626.8640 460011.0515 7323177.6658 2717.1720
 460081.3703 7323100.5848 2628.4890 460053.4971 7323117.5246 2720.9640
 460124.9603 7323054.1241 2629.4130 460100.5543 7323057.0383 2723.1980
 460169.8151 7323005.7139 2625.3990 460150.7802 7322996.4010 2722.3420
 460216.4643 7322958.1140 2614.1490 460204.7396 7322937.7639 2716.1270
 460263.6618 7322909.2633 2607.6040 460259.2145 7322881.7182 2703.1880
 460307.1233 7322860.5687 2612.6360 460313.6210 7322823.2926 2707.8500
 460346.7927 7322817.8183 2610.8860 460366.3287 7322768.6167 2704.5080
 460374.1287 7322774.9031 2607.5620 460419.2094 7322715.1170 2698.0570
 460414.3190 7322725.7520 2609.4580 460471.7337 7322659.4410 2696.5040
 460463.0637 7322671.4858 2609.7570 460515.8294 7322611.4079 2689.2760
 460515.5795 7322612.8337 2609.0250 460571.2277 7322550.0493 2700.0630
 460071.9103 7323235.8012 2613.7220 460054.7999 7323282.1624 2702.0460
 460112.9996 7323199.1037 2613.7260 460086.1124 7323231.7153 2711.1840
 460155.5714 7323158.7819 2610.8860 460123.4135 7323174.6471 2713.6330
 460199.9437 7323114.4917 2600.5940 460168.6350 7323116.4874 2713.7370
 460244.7979 7323069.2459 2590.3210 460220.9544 7323059.5261 2694.9530
 460288.5241 7323021.6784 2594.0680 460274.6181 7323002.9025 2693.0920
 460332.9842 7322974.0140 2597.4470 460328.9423 7322945.1610 2694.6810
 460371.7821 7322931.4194 2596.2050 460381.7190 7322892.1056 2689.5610
 460409.3402 7322888.0399 2595.1000 460432.5020 7322841.1879 2681.7060
 460444.2431 7322845.0738 2592.3100 460483.9339 7322788.2616 2678.3250
 460482.6661 7322798.3730 2594.7400 460537.8245 7322731.1381 2679.5930
 460525.0879 7322746.9314 2602.5210 460588.9161 7322678.1438 2677.0970
 460585.6703 7322682.3820 2597.9680 460650.0008 7322612.6140 2695.8400
 460143.9180 7323296.2010 2600.9800 460130.2056 7323339.1305 2687.8200
 460186.1470 7323265.7351 2600.9270 460152.0913 7323293.5950 2710.1430
 460229.1276 7323230.0243 2595.1480 460187.7440 7323234.2500 2700.5830
 460267.9456 7323183.2917 2587.5820 460238.5282 7323179.6430 2686.8710
 460310.6028 7323136.3802 2582.8160 460290.7643 7323125.2706 2677.5410
 460353.4959 7323090.7326 2588.7420 460342.3693 7323068.6443 2684.1860
 460397.1047 7323045.1706 2588.0670 460396.3803 7323014.0206 2680.2220
 460437.8814 7323002.6654 2582.4730 460448.8583 7322962.3962 2672.1630
 460475.6507 7322960.4090 2579.3570 460501.5618 7322907.3336 2673.1460
 460513.0382 7322915.4312 2579.4380 460550.1350 7322860.6720 2663.0390
 460545.4371 7322877.0532 2579.2790 460604.6042 7322804.1494 2669.0700
 460581.4488 7322834.6507 2586.0730 460657.1328 7322749.9898 2667.2650
 460650.2950 7322756.8345 2585.7140 460710.1602 7322695.4157 2670.9060
 460201.1244 7323370.8815 2589.1700 460190.4410 7323411.7578 2675.0920
 460264.6050 7323355.9120 2591.3350 460225.4917 7323361.2305 2678.1010
 460293.9896 7323305.5564 2585.6500 460259.8428 7323305.0000 2679.4250
 460336.1162 7323255.8660 2580.4300 460308.1791 7323251.1044 2673.4850
 460378.1356 7323214.7103 2577.3410 460358.5129 7323194.3522 2669.4360
 460420.1211 7323165.1392 2576.8620 460409.7918 7323138.3053 2667.4100
 460465.4754 7323117.3804 2573.4700 460464.2670 7323084.6275 2661.9190
 460509.0879 7323070.7695 2572.4720 460517.2839 7323032.1064 2657.0580
 460548.4400 7323029.2762 2570.9210 460567.2580 7322982.0710 2654.2970
 460584.4384 7322983.1903 2572.1300 460617.3363 7322932.7905 2650.6580
 460621.6958 7322938.2456 2570.2170 460669.6563 7322879.3410 2655.6840
 460666.4774 7322886.7699 2577.1130 460720.7429 7322827.9109 2655.0130
 460712.3485 7322833.7726 2570.4440 460775.6348 7322772.2945 2657.5880
 460257.0783 7323448.0256 2578.6740 460245.9234 7323487.9904 2667.5860
 460308.3867 7323411.4995 2578.7740 460284.4205 7323432.9292 2668.4840
 460354.0365 7323363.7405 2574.3260 460326.0250 7323378.0575 2666.4700
 460403.8886 7323307.3116 2567.4580 460373.0435 7323322.9134 2659.9380
 460439.7129 7323271.9629 2569.1670 460423.5272 7323266.8411 2659.6070
 460478.8795 7323232.1650 2567.8290 460476.7623 7323211.6522 2653.4150
 460519.5684 7323190.9207 2566.1590 460530.6595 7323156.1502 2653.1960
 460562.1926 7323146.5845 2564.1730 460582.1431 7323105.0814 2648.5000
 460603.8728 7323102.4437 2562.3750 460632.6109 7323055.1207 2644.1800
 460645.3203 7323055.9360 2562.7310 460682.9190 7323005.5526 2642.5080
 460688.1635 7323007.5466 2562.5050 460734.2945 7322954.6182 2643.3880
 460731.7552 7322958.3959 2563.9380 460786.1023 7322902.9133 2646.1090
 460777.1549 7322907.8458 2563.2240 460838.5524 7322851.1875 2647.6420
 460312.3810 7323527.5475 2569.0130 460290.8951 7323555.2862 2659.7770
 460360.0059 7323482.5531 2569.5910 460336.3415 7323501.9041 2660.8640
 460406.9987 7323434.5352 2567.7960 460384.0173 7323447.2145 2653.6120
 460452.6764 7323384.7223 2569.7040 460430.6380 7323392.8253 2651.5720
 460494.4361 7323335.1463 2560.7390 460483.4068 7323338.8227 2648.3430
 460531.6051 7323303.2676 2560.2610 460538.6006 7323283.1256 2646.4990
 460564.4093 7323274.5926 2554.5760 460592.8458 7323230.5613 2638.2870
 460614.0986 7323224.6681 2555.5490 460644.1987 7323180.0812 2637.9200
 460659.6909 7323177.7101 2553.6260 460695.6604 7323129.6952 2634.2540
 460703.8153 7323131.1983 2552.8610 460746.2907 7323080.7207 2633.2400
 460748.6415 7323082.7200 2553.5740 460797.9702 7323030.3666 2635.3170
 460795.0360 7323032.3264 2557.2710 460850.3431 7322979.4578 2638.7410
 460838.1779 7322984.7993 2555.8740 460902.4905 7322928.7828 2641.6610
 460367.0281 7323607.5966 2560.4960 460339.5079 7323622.8732 2653.2090
 460413.5100 7323559.4170 2561.6770 460388.5631 7323571.8904 2652.8270
 460461.1530 7323510.4031 2557.0950 460439.5600 7323519.5446 2646.2750
 460506.0368 7323461.4687 2561.7440 460490.7657 7323466.7485 2640.8430
 460550.7917 7323412.4208 2553.6560 460542.6658 7323413.3862 2639.9900
 460590.2236 7323376.5856 2553.5180 460599.1385 7323356.8002 2637.6590
 460627.9689 7323341.9467 2549.7550 460656.4850 7323299.8159 2632.7690
 460673.0878 7323297.9351 2549.6310 460707.7818 7323252.1009 2628.5950
 460719.3823 7323250.8870 2548.9370 460759.2050 7323202.9564 2626.7840
 460765.1944 7323203.8256 2547.5980 460809.4527 7323155.1630 2624.6100
 460810.9972 7323155.9347 2547.3710 460861.5706 7323105.4400 2626.9760
 460857.8279 7323106.8545 2550.5130 460914.8903 7323054.7195 2631.4240
 460902.4194 7323059.2873 2550.7860 460970.1627 7323002.9886 2637.9230
 460421.7526 7323687.8122 2552.5600 460387.8186 7323690.0032 2645.1490
 460467.9000 7323637.4868 2554.0040 460440.7489 7323643.5292 2644.3460
 460515.1862 7323587.6717 2552.3320 460494.6353 7323593.5122 2637.0630
 460561.8785 7323537.7984 2558.2360 460547.1259 7323542.1057 2633.1840
 460610.8662 7323487.8702 2547.9060 460600.0066 7323489.7726 2632.1530
 460649.4404 7323451.8775 2547.2490 460657.0912 7323434.0326 2628.4630
 460687.8488 7323416.3444 2548.1000 460716.3388 7323375.5139 2628.1290
 460730.9470 7323373.8373 2549.1400 460774.8579 7323319.3785 2628.4180
 460778.4581 7323326.2241 2545.5520 460821.1468 7323277.4820 2619.7350
 460826.5098 7323277.9575 2543.8360 460872.6320 7323229.3991 2618.1700
 460873.9365 7323229.4774 2542.7170 460925.7918 7323179.5834 2620.7060
 460922.3538 7323179.8600 2545.2370 460982.6960 7323126.9796 2628.2710
 460970.4977 7323130.5792 2547.5300 461041.4588 7323073.7526 2636.5210
 460472.5948 7323765.9492 2550.7220 460440.6006 7323768.4222 2640.2530
 460521.4970 7323715.6868 2548.4540 460492.4546 7323720.8933 2640.7180
 460571.2855 7323664.4139 2544.1190 460547.9931 7323670.5536 2630.1530
 460618.9201 7323613.6162 2553.6540 460601.6420 7323619.7790 2627.2220
 460672.1928 7323560.0982 2543.7230 460655.2244 7323568.1306 2627.3470
 460709.7954 7323525.6397 2543.3370 460713.2431 7323512.9327 2621.0400
 460747.3631 7323490.6787 2543.0190 460770.5534 7323457.9311 2619.3890
 460783.4095 7323457.4625 2542.2120 460828.5720 7323402.6726 2618.7030
 460837.7825 7323402.5515 2541.7280 460881.7595 7323353.3264 2615.5020
 460888.3342 7323352.1373 2540.5410 460933.9901 7323305.0391 2613.1520
 460937.9314 7323302.2338 2539.1830 460989.6445 7323253.7101 2615.9500
 460988.8790 7323251.7363 2541.7390 461047.6564 7323200.3716 2622.0840
 461041.8062 7323199.6666 2545.7250 461112.1414 7323142.8358 2633.6580
 460520.4479 7323845.1525 2554.3910 460490.0195 7323848.6342 2638.1380
 460573.7929 7323794.2512 2544.6450 460543.9826 7323800.1283 2634.6240
 460624.4691 7323743.2931 2541.5710 460599.4258 7323750.2015 2626.6440
 460674.8000 7323691.4616 2548.3100 460654.2871 7323699.2122 2625.2350
 460729.4355 7323637.6980 2541.1120 460709.7758 7323647.2206 2623.4350
 460769.9690 7323599.2201 2541.1280 460768.9094 7323591.6878 2616.7320
 460811.7615 7323559.8655 2541.8650 460826.9382 7323536.6065 2615.3070
 460855.5850 7323517.6633 2541.8780 460884.9870 7323481.8353 2615.1590
 460902.9549 7323471.6995 2540.4990 460941.7112 7323429.2849 2615.0230
 460954.2581 7323421.8311 2542.4740 460995.7819 7323380.1369 2611.4260
 461001.5976 7323375.4382 2536.0340 461053.1320 7323327.6565 2613.6650
 461053.7270 7323324.7508 2537.3270 461113.6618 7323272.8888 2620.5090
 461112.8493 7323268.0017 2544.9280 461189.0265 7323206.3256 2642.8990
 460566.0800 7323925.6136 2563.5720 460536.8683 7323930.6258 2638.5700
 460625.6919 7323873.3131 2542.5240 460594.1292 7323881.1400 2631.3250
 460675.7234 7323822.8919 2545.4690 460651.0012 7323830.6696 2622.8320
 460728.0628 7323771.5973 2549.1470 460706.0468 7323780.1960 2623.0820
 460785.6572 7323716.8939 2540.3480 460762.6879 7323728.0122 2620.3930
 460827.2065 7323676.5241 2540.7730 460823.2126 7323671.3347 2617.2350
 460871.0412 7323634.3834 2542.3100 460882.6586 7323615.6073 2613.9470
 460916.9242 7323590.7864 2542.3870 460941.2243 7323560.9964 2613.3770
 460964.6036 7323544.6866 2541.1030 460999.3393 7323507.3616 2613.0460
 461014.4947 7323497.2860 2541.1350 461056.1117 7323455.6886 2612.0010
 461066.5329 7323447.4923 2538.5580 461116.3450 7323401.3311 2615.8370
 461122.7643 7323394.2030 2543.5330 461179.8120 7323345.1993 2623.6260
 461182.9750 7323338.4326 2549.0000 461255.9453 7323279.7761 2642.0300
 460615.9559 7324005.2954 2566.8110 460586.5455 7324011.7026 2637.0550
 460677.7422 7323953.4749 2542.2990 460644.7519 7323963.0777 2628.4220
 460727.2784 7323903.7422 2547.3780 460701.9887 7323913.0279 2620.5670
 460779.2112 7323853.4503 2548.7710 460755.7026 7323863.4142 2624.1600
 460834.7195 7323800.9540 2540.0170 460812.5063 7323811.7710 2617.8080
 460879.3823 7323758.0123 2540.6090 460876.0417 7323752.3535 2616.1690
 460925.7292 7323713.5474 2543.9790 460938.1056 7323694.3118 2614.9110
 460973.7770 7323667.8818 2544.9740 460998.8298 7323637.8566 2614.4400
 461022.7722 7323621.2661 2543.3940 461057.8822 7323583.5034 2613.5110
 461073.0755 7323573.7039 2541.6300 461115.3017 7323531.2418 2612.6090
 461126.1656 7323523.3534 2540.4610 461176.3778 7323476.4538 2618.2970
 461185.2876 7323468.5219 2547.6200 461241.3711 7323420.2917 2627.1650
 461248.1917 7323412.4485 2551.5210 461318.8052 7323356.9144 2641.7590
 460670.0503 7324084.2961 2565.0690 460636.5800 7324092.8236 2637.9260
 460729.2001 7324033.8447 2544.5360 460695.0258 7324046.5818 2627.1920
 460778.2346 7323985.7072 2548.6930 460751.8863 7323996.9760 2620.2190
 460829.3695 7323936.4310 2548.2910 460805.5656 7323947.3402 2624.2070
 460883.4147 7323885.4678 2539.7430 460863.9900 7323894.3224 2614.9910
 460929.3748 7323840.9940 2540.6670 460929.1344 7323833.5930 2611.6580
 460977.1892 7323795.4984 2543.9840 460994.1070 7323772.2685 2615.9070
 461026.1546 7323749.6772 2545.6030 461059.2206 7323711.5009 2619.9920
 461082.6558 7323695.0245 2555.9400 461123.5306 7323651.0055 2625.1850
 461128.6780 7323652.0223 2543.1340 461174.7085 7323605.0934 2615.3240
 461181.7770 7323601.6860 2543.3960 461234.3042 7323551.5892 2624.4520
 461240.3774 7323548.0848 2553.2800 461292.3503 7323502.3079 2629.1460
 461293.6913 7323501.2491 2548.4660 461354.1741 7323454.8022 2629.5890
 460726.3976 7324161.2293 2568.0590 460691.5934 7324189.5934 2637.0510
 460777.4136 7324116.4665 2550.0880 460743.8054 7324136.4900 2625.8940
 460827.5513 7324069.0063 2551.0930 460799.6606 7324084.3943 2624.0350
 460877.8497 7324019.9968 2548.2730 460854.4131 7324033.2678 2622.5610
 460928.4714 7323971.4987 2539.7330 460910.7477 7323981.1662 2613.5950
 460977.4596 7323924.5227 2540.5150 460981.8512 7323913.9044 2611.6210
 461026.2833 7323879.7765 2545.7980 461049.3091 7323851.7915 2615.9610
 461070.9060 7323839.7853 2539.8770 461113.7762 7323791.7026 2609.9430
 461125.0355 7323788.2317 2548.3650 461180.5689 7323728.3748 2615.7200
 461185.6046 7323728.3108 2546.0930 461232.1386 7323679.1832 2612.4960
 461233.5453 7323681.8484 2545.1780 461282.4210 7323632.4455 2621.6260
 461279.8892 7323637.2471 2548.1140 461328.7374 7323589.1650 2624.6110
 461330.3759 7323594.3197 2547.9710 461378.8094 7323544.7032 2624.7820
 460790.7125 7324246.6257 2577.0990 460748.4578 7324259.2453 2647.2720
 460850.7745 7324192.1245 2564.0840 460813.8486 7324208.0923 2635.6110
 460908.1889 7324137.6181 2551.5870 460875.7033 7324155.2911 2625.5070
 460961.9434 7324083.9740 2541.9650 460934.7849 7324102.8541 2616.0830
 461013.3469 7324039.6764 2541.5150 460993.0612 7324046.8763 2614.2310
 461055.7070 7323998.9007 2541.1280 461057.8868 7323987.4797 2611.6350
 461099.9328 7323956.5070 2545.7810 461121.4673 7323927.8458 2615.7610
 461140.2070 7323919.8391 2539.3610 461179.6673 7323874.1708 2608.8590
 461191.6145 7323870.8719 2544.9250 461234.2510 7323824.1929 2612.6230
 461242.2862 7323822.5555 2547.5170 461285.2815 7323777.9872 2614.7120
 461288.7337 7323777.9906 2546.9060 461333.0518 7323735.2132 2620.1380
 461332.7643 7323736.4026 2546.4550 461379.8368 7323694.6132 2623.2620
 461379.8690 7323692.3815 2551.2490 461426.9569 7323655.3327 2626.2860
 460873.6902 7324321.7955 2562.4810 460819.4134 7324339.2930 2642.3000
 460932.1972 7324262.5262 2562.0580 460890.0868 7324279.6336 2635.2150
 460990.6554 7324205.9688 2551.4620 460951.3195 7324225.9541 2631.5280
 461043.9962 7324153.3280 2543.2480 461012.5479 7324172.6135 2618.6930
 461089.2226 7324111.5776 2543.3270 461074.5175 7324114.6491 2615.0690
 461132.4127 7324070.9353 2544.2460 461135.3686 7324058.2610 2614.2240
 461174.5732 7324031.4640 2547.0600 461195.1683 7324002.8098 2615.4350
 461210.8488 7323999.8409 2537.3130 461249.8764 7323953.1239 2608.6670
 461258.3705 7323954.7048 2543.8090 461295.7468 7323912.8583 2610.0730
 461303.8245 7323911.8233 2547.8120 461340.1589 7323873.7159 2611.4400
 461344.0783 7323874.0993 2542.0920 461384.3878 7323834.8830 2614.7230
 461383.4514 7323836.6449 2539.2020 461429.9796 7323794.7564 2622.5560
 461429.3004 7323793.4484 2550.2760 461471.9550 7323758.2655 2626.6220
 460968.7088 7324382.4523 2564.5040 460915.4761 7324398.7285 2637.3060
 461023.9446 7324322.4868 2558.1670 460976.0846 7324342.5778 2635.3230
 461076.4488 7324267.9852 2554.8860 461033.4614 7324291.0991 2635.2210
 461132.9121 7324215.4964 2543.2350 461096.8078 7324236.6094 2620.2350
 461171.9599 7324178.5366 2544.2690 461157.5471 7324181.2285 2613.5150
 461211.3987 7324142.2553 2545.4700 461214.4872 7324128.4428 2614.5720
 461251.1710 7324104.9438 2549.4990 461271.1865 7324076.1057 2616.0950
 461285.3928 7324075.2534 2539.9790 461322.2820 7324030.0005 2609.0510
 461328.8715 7324035.3208 2544.9140 461365.2029 7323993.5343 2612.8960
 461369.4988 7323998.0326 2546.8810 461405.0255 7323960.2807 2612.8720
 461408.7059 7323962.0248 2543.9770 461445.1274 7323926.0351 2613.5430
 461445.2787 7323928.1451 2542.0110 461486.6229 7323889.9523 2621.1930
 461481.8439 7323893.8788 2543.8510 461523.8233 7323857.7407 2624.5050
 461055.7479 7324431.4574 2570.2670 461006.5060 7324443.0583 2640.0940
 461116.2697 7324370.8910 2553.1510 461065.3920 7324397.1828 2635.1130
 461167.7377 7324317.6534 2545.7490 461124.0454 7324350.4860 2626.3120
 461220.7314 7324275.2993 2544.2710 461182.2779 7324297.4965 2621.0920
 461255.3894 7324242.9864 2543.8880 461240.9967 7324245.5205 2614.7260
 461290.8137 7324211.2927 2544.0530 461295.4369 7324196.6261 2615.0480
 461325.2343 7324180.9447 2540.6030 461348.8267 7324148.4137 2613.2300
 461363.3560 7324148.0724 2545.3840 461398.4437 7324104.0349 2614.8280
 461405.6938 7324109.8293 2548.7260 461439.4294 7324070.9131 2617.0660
 461443.4932 7324076.7401 2546.4280 461477.4992 7324040.5746 2614.6620
 461480.5409 7324044.3048 2544.3730 461515.3883 7324009.7604 2614.4460
 461515.3155 7324013.4968 2542.0180 461554.4389 7323977.1141 2620.8620
 461549.4626 7323983.4126 2542.8930 461589.7553 7323948.4417 2624.0950
 461147.3333 7324468.5925 2576.3180 461099.0694 7324480.7907 2643.8790
 461211.0412 7324401.6817 2547.2330 461159.3599 7324446.6660 2632.8730
 461258.6407 7324369.0214 2547.0000 461213.6432 7324402.3795 2627.0350
 461298.0468 7324337.4902 2544.2270 461269.9383 7324354.9221 2622.5640
 461333.8657 7324307.5598 2548.4280 461324.4093 7324308.4977 2619.5940
 461369.3531 7324279.5342 2536.0600 461377.1133 7324263.8602 2614.1730
 461408.3266 7324246.5303 2544.5740 461427.5005 7324219.5797 2617.3910
 461449.6794 7324211.1060 2552.3810 461472.5321 7324182.7876 2620.8480
 461488.8421 7324178.3724 2552.4510 461515.3902 7324148.2833 2621.3140
 461527.8695 7324145.1612 2552.7890 461555.9782 7324116.0870 2617.9370
 461564.3299 7324115.2840 2549.3700 461595.9410 7324084.8122 2618.0820
 461600.0790 7324085.3826 2546.9360 461637.0727 7324052.1917 2624.0260
 461634.0364 7324057.8632 2543.2170 461674.9362 7324023.2172 2625.2980
 461251.1660 7324500.8938 2579.6450 461197.6978 7324518.9549 2646.8750
 461303.1737 7324450.1639 2558.8660 461256.0622 7324490.1390 2634.3100
 461344.1951 7324422.9931 2551.0900 461308.5717 7324450.5536 2626.5840
 461380.4854 7324397.5175 2549.4610 461358.9778 7324411.9664 2623.7860
 461417.2530 7324371.5000 2535.2450 461410.7818 7324371.5000 2608.2280
 461454.6617 7324341.9244 2543.5750 461458.5999 7324331.6367 2615.4550
 461493.8255 7324310.3526 2549.7610 461504.3969 7324294.4666 2621.5770
 461533.0904 7324278.9652 2552.5050 461549.4556 7324258.9001 2624.0580
 461572.5391 7324246.5928 2552.1690 461594.2151 7324223.1817 2623.3000
 461610.8047 7324215.6116 2549.7810 461637.5309 7324189.3962 2620.7180
 461650.8553 7324183.3462 2550.9950 461681.8518 7324154.3647 2623.0240
 461690.6623 7324151.2032 2552.5140 461725.9512 7324120.3999 2627.3230
 461730.6760 7324119.3359 2555.3270 461767.8027 7324088.4475 2627.7620
 461355.2178 7324544.2061 2577.1150 461298.7795 7324564.9896 2643.3510
 461399.1021 7324514.5270 2560.4650 461352.0934 7324538.0313 2631.7860
 461435.2592 7324487.0090 2549.3100 461401.6889 7324507.0798 2622.0770
 461468.7083 7324460.4973 2536.2700 461449.8336 7324473.3594 2608.9260
 461502.4954 7324435.7258 2541.7810 461493.8570 7324438.2087 2613.6530
 461540.1964 7324406.3769 2546.6880 461538.2329 7324403.5203 2618.9550
 461578.9675 7324376.0028 2549.7360 461583.4549 7324367.9539 2622.7110
 461618.6709 7324344.7933 2553.6690 461629.3947 7324331.8191 2626.7200
 461659.1097 7324312.2509 2555.3560 461675.4374 7324295.6031 2626.1870
 461699.0026 7324280.4380 2551.7080 461720.6246 7324260.0694 2621.5510
 461738.9316 7324248.5006 2549.5190 461766.6384 7324224.1013 2621.4640
 461781.2051 7324214.3530 2551.5990 461815.3114 7324185.6824 2625.9220
 461825.1662 7324178.0268 2554.1190 461864.8979 7324145.6204 2628.4340
 461449.5278 7324606.9235 2572.1390 461390.6284 7324628.1637 2639.1790
 461485.3406 7324580.3929 2560.1330 461440.1628 7324602.8302 2629.7140
 461521.5345 7324548.6766 2535.2970 461490.4007 7324573.2652 2610.5620
 461551.2495 7324529.0331 2539.0900 461531.0794 7324542.7904 2611.8700
 461586.7901 7324502.2830 2544.4620 461573.7610 7324509.7955 2615.6200
 461624.0622 7324473.5734 2549.0810 461617.5935 7324475.7426 2619.8410
 461662.5178 7324443.7884 2555.1330 461662.3449 7324441.0204 2625.7230
 461702.2967 7324413.0402 2557.8710 461708.3672 7324405.2575 2628.9940
 461742.9271 7324381.4453 2558.4990 461755.3928 7324368.9192 2629.4700
 461784.4922 7324348.7319 2556.9430 461803.4024 7324331.5808 2627.7460
 461826.6217 7324315.3094 2555.1330 461851.5990 7324294.1612 2625.3600
 461868.7865 7324281.4932 2554.3770 461900.9501 7324255.7001 2625.5440
 461912.1485 7324246.8652 2555.5610 461951.6295 7324215.7117 2626.3260
 461530.3345 7324679.6302 2572.7040 461476.0825 7324694.4225 2636.8960
 461564.7216 7324654.1210 2560.5770 461522.1362 7324672.6264 2628.4960
 461599.0867 7324623.5876 2537.1560 461568.5713 7324647.2635 2612.0620
 461632.3546 7324598.9983 2541.2430 461609.7126 7324615.6797 2613.3180
 461667.6494 7324572.6931 2545.7350 461651.7154 7324583.3547 2616.0230
 461703.8598 7324545.6226 2550.7920 461694.2848 7324550.6350 2620.7460
 461741.8638 7324516.5039 2555.9910 461738.4443 7324516.8184 2625.5980
 461781.4688 7324486.4508 2558.6520 461784.2210 7324482.0462 2628.5480
 461822.5243 7324454.8796 2559.4150 461831.6130 7324445.6315 2629.8040
 461865.0332 7324421.6754 2558.6420 461880.7221 7324408.1760 2629.3010
 461908.7382 7324387.6827 2556.3570 461931.3547 7324369.4755 2626.5840
 461953.6803 7324352.7016 2553.7690 461983.5145 7324329.3616 2624.1560
 462003.2233 7324312.9732 2556.8460 462040.5990 7324284.5328 2626.2210
 461603.3209 7324758.1654 2570.4810 461551.5624 7324768.3759 2638.3260
 461636.6910 7324733.0682 2560.9010 461598.5333 7324747.2091 2628.0820
 461670.2549 7324703.0585 2541.0880 461644.2133 7324722.2933 2612.5390
 461705.0999 7324677.4418 2543.4200 461683.9538 7324691.8124 2614.2270
 461741.4127 7324650.3790 2544.8940 461725.2826 7324660.4505 2614.9140
 461777.6051 7324622.8946 2549.5030 461766.9056 7324628.5590 2618.7670
 461815.4222 7324594.4579 2553.7040 461810.2398 7324595.7238 2622.5500
 461854.8561 7324564.5973 2556.2990 461855.4150 7324561.7228 2625.8040
 461896.0379 7324533.7007 2557.5070 461902.7655 7324526.2436 2628.3830
 461939.0605 7324501.2520 2557.1150 461952.2489 7324489.5290 2628.1410
 461984.0219 7324466.7825 2555.1150 462003.8735 7324450.9012 2624.9420
 462031.3018 7324430.8632 2552.5340 462058.8976 7324409.9469 2623.6520
 462085.2732 7324389.5961 2557.9410 462118.9004 7324365.0850 2624.3850
 461680.6998 7324837.7337 2561.3200 461626.9897 7324847.5637 2632.4360
 461708.4732 7324812.4250 2557.7140 461671.7535 7324824.6779 2625.6270
 461733.8809 7324787.9209 2556.8750 461713.6428 7324801.7837 2620.8500
 461772.3422 7324759.1060 2546.9430 461753.1237 7324771.1152 2616.7580
 461808.9513 7324732.4096 2544.1280 461793.4465 7324740.6366 2613.8740
 461845.1341 7324705.3212 2546.9140 461833.8276 7324710.1927 2617.4370
 461882.4496 7324677.9541 2550.4210 461876.1598 7324678.9375 2620.7600
 461921.3891 7324648.6478 2552.3130 461920.5894 7324646.0239 2623.0580
 461962.0702 7324618.4281 2552.8080 461967.0994 7324612.0165 2623.1880
 462004.7520 7324587.2078 2552.4280 462015.8443 7324576.7121 2621.9290
 462050.0647 7324553.7018 2551.6910 462067.8428 7324539.4139 2621.3960
 462099.3653 7324517.5305 2552.4190 462124.0040 7324499.0970 2622.0050
 462154.1166 7324477.5324 2554.7250 462184.7271 7324456.1419 2621.3580
 461759.9045 7324917.1470 2552.7530 461706.1967 7324924.2655 2624.2490
 461780.7061 7324892.1227 2551.8510 461742.3387 7324902.6219 2622.0140
 461802.1156 7324865.0256 2549.5440 461780.7747 7324878.8775 2618.4170
 461838.0003 7324841.9829 2543.2540 461816.9079 7324852.2508 2616.5000
 461870.8569 7324818.5733 2545.0050 461854.7274 7324824.3368 2613.9790
 461906.2856 7324792.9588 2545.8100 461894.3125 7324795.5345 2614.8050
 461942.9625 7324766.5567 2544.4050 461935.7803 7324765.8982 2614.2660
 461980.4598 7324738.9238 2544.7820 461978.7689 7324734.9155 2616.0120
 462019.5628 7324709.7363 2545.6500 462023.9665 7324702.3194 2617.7520
 462060.8634 7324679.4140 2546.3480 462071.5131 7324668.8060 2616.9110
 462105.2833 7324647.6274 2548.6340 462121.7701 7324633.7936 2616.0400
 462152.9078 7324613.6257 2549.9850 462175.5602 7324596.7972 2615.4510
 462205.3820 7324577.8382 2552.0410 462234.4250 7324557.7519 2616.3580
 461743.8050 7325012.5187 2650.3490 461701.6026 7325012.2133 2712.2790
 461846.5856 7324989.9828 2544.9830 461803.1395 7324990.1531 2612.8360
 461871.1482 7324964.4530 2546.2240 461837.6182 7324965.4087 2613.7650
 461897.8612 7324939.0590 2547.5830 461871.3200 7324939.9964 2616.3930
 461928.8568 7324913.5000 2547.0760 461908.9036 7324913.5000 2614.5730
 461961.5404 7324887.4834 2546.6580 461947.7123 7324886.2009 2612.3150
 461995.5800 7324860.9437 2545.5620 461987.6455 7324857.7298 2611.5830
 462031.1730 7324834.0515 2544.1820 462029.2749 7324828.2960 2611.1820
 462068.2971 7324806.2068 2543.9530 462072.6211 7324797.9935 2611.3560
 462107.3860 7324777.2161 2545.0460 462117.8806 7324766.3128 2610.7310
 462148.6816 7324747.3884 2546.8230 462165.3316 7324733.7586 2610.3830
 462192.6579 7324716.4481 2548.2970 462215.7284 7324699.8547 2610.7990
 462239.9447 7324684.2872 2549.5750 462269.3765 7324664.6564 2611.0680
 461830.8780 7325086.9971 2650.0560 461797.3964 7325087.6100 2711.7620
 461899.8766 7325082.1722 2543.0610 461864.4286 7325076.2608 2609.0420
 461923.9926 7325059.7669 2542.4830 461893.9686 7325055.0847 2608.1060
 461948.2487 7325035.5833 2546.0910 461923.6864 7325031.9333 2611.4480
 461974.0601 7325010.5687 2554.5560 461956.2181 7325007.0039 2616.3730
 462006.3504 7324985.3205 2549.3670 461993.2029 7324981.0741 2613.4660
 462039.0255 7324959.8631 2547.0350 462031.9803 7324953.9306 2610.8900
 462072.7789 7324933.9740 2544.3940 462072.1311 7324925.9512 2609.8920
 462107.4528 7324907.2831 2542.0890 462113.6022 7324897.1745 2608.6580
 462143.2264 7324880.0706 2542.1120 462156.1838 7324867.4454 2607.0300
 462180.5688 7324852.2377 2543.7210 462199.7760 7324837.5122 2605.6430
 462219.4235 7324823.8164 2545.4810 462244.5177 7324806.7641 2604.2960
 462259.5642 7324794.9767 2546.7000 462291.6404 7324774.9047 2605.7830
 461870.3370 7325194.0000 2647.8850 461842.7357 7325194.0000 2710.1750
 461898.5078 7325175.2454 2634.1040 461868.3478 7325163.3919 2702.6030
 461919.5663 7325153.3836 2640.4440 461896.6848 7325145.3257 2700.6250
 461979.2879 7325139.9060 2541.1760 461957.9403 7325134.5950 2605.4710
 462010.1979 7325113.8429 2544.1280 461993.5648 7325108.7052 2607.6880
 462040.8871 7325087.4735 2549.6570 462030.1009 7325081.8640 2611.1370
 462073.9599 7325062.7547 2544.8510 462068.7301 7325055.3088 2608.6920
 462106.5044 7325037.7067 2539.3740 462108.0505 7325028.6487 2603.7150
 462138.9095 7325011.7837 2537.4950 462147.7750 7325000.6041 2603.0300
 462171.4998 7324986.1767 2536.6810 462188.0511 7324972.0151 2602.0450
 462204.7893 7324959.8865 2538.3730 462228.4594 7324943.6609 2600.9570
 462238.3201 7324933.7129 2540.0110 462268.6350 7324914.9934 2599.7910
 462272.9681 7324906.8582 2542.9680 462309.5760 7324885.9309 2600.4710
 461913.0855 7325296.8441 2645.9460 461888.1055 7325301.8795 2708.5680
 461937.7931 7325275.5835 2639.9700 461913.6176 7325276.4727 2702.4720
 461961.6781 7325254.6749 2635.7170 461939.4359 7325252.4800 2695.0480
 461984.0736 7325233.7910 2634.7260 461963.2724 7325229.1330 2691.2510
 462047.0093 7325215.3033 2537.0630 462026.3969 7325212.4980 2602.4170
 462077.2160 7325190.7236 2538.7750 462064.2348 7325186.4848 2602.5210
 462108.1402 7325166.7178 2538.0210 462102.4475 7325160.0098 2601.8480
 462138.3488 7325142.2289 2534.1310 462140.5274 7325133.5144 2596.8170
 462168.0987 7325117.7076 2530.6050 462177.9458 7325107.0929 2591.1660
 462197.6086 7325093.5023 2529.8390 462215.7322 7325079.9994 2591.3360
 462227.4738 7325068.8848 2531.5260 462254.0037 7325052.0157 2592.8070
 462256.6709 7325044.1466 2533.4730 462291.4858 7325024.4702 2593.4030
 462285.7477 7325019.5360 2535.1050 462328.1618 7324997.0290 2593.3960
 461956.8486 7325399.8271 2636.9710 461936.1593 7325407.7377 2697.5030
 461981.5206 7325378.6043 2634.6870 461961.1937 7325383.2284 2696.4180
 462006.1638 7325356.9064 2632.1540 461987.5820 7325358.4421 2690.6010
 462032.4225 7325335.7495 2625.7710 462014.8110 7325334.1788 2682.1460
 462060.2362 7325315.0609 2614.0000 462042.6226 7325310.2181 2671.8630
 462113.3523 7325294.8541 2528.8440 462098.7359 7325292.7102 2588.9670
 462142.1876 7325270.4418 2531.3450 462135.3359 7325266.5691 2589.8670
 462170.9706 7325246.4708 2529.4550 462172.1181 7325240.5591 2588.1670
 462198.9431 7325223.2257 2525.9380 462208.6761 7325214.1227 2584.4830
 462225.9119 7325199.7040 2523.9400 462244.0404 7325188.0262 2581.1540
 462251.2773 7325177.3138 2522.7040 462279.4418 7325161.6510 2582.4220
 462276.9073 7325154.4201 2524.6730 462314.8508 7325134.7180 2584.0470
 462302.3067 7325131.8177 2526.8840 462349.2229 7325108.2314 2585.3290
 462000.9968 7325502.5339 2622.6510 461983.6693 7325512.7448 2681.9440
 462027.4928 7325481.1451 2620.0930 462010.4715 7325488.8124 2680.4190
 462053.9767 7325459.6462 2617.1470 462036.8841 7325465.1614 2678.2830
 462080.1919 7325438.5129 2614.9080 462063.0304 7325441.2384 2675.6950
 462106.4354 7325417.5308 2608.4250 462089.6734 7325417.1934 2669.5270
 462134.5135 7325396.9764 2595.0420 462117.0886 7325393.5389 2659.6220
 462183.0795 7325371.7986 2517.1180 462171.3247 7325372.5915 2573.1340
 462209.4155 7325348.7275 2521.1660 462206.4668 7325347.2252 2575.9090
 462236.6518 7325325.6034 2524.6860 462242.0291 7325321.3015 2576.7940
 462260.2154 7325304.5979 2513.3370 462276.5361 7325295.7294 2572.1850
 462284.0351 7325283.3299 2512.4850 462311.3496 7325269.6522 2572.4750
 462307.9701 7325261.9272 2515.6140 462345.9520 7325243.0986 2573.8840
 462332.9711 7325239.6214 2519.3390 462381.5294 7325215.7179 2577.1180
 462046.6273 7325603.1085 2600.2410 462031.8244 7325616.6521 2662.2900