-- This reservoir simulation deck is made available under the Open Database
-- License: http://opendatacommons.org/licenses/odbl/1.0/. Any rights in
-- individual contents of the database are licensed under the Database Contents
-- License: http://opendatacommons.org/licenses/dbcl/1.0/

-- Copyright (C) 2020 Equinor


SPECGRID
 20 8 11 1 F / 

COORD
  2000.0000  2000.0000  2000.0000   1999.8822  1999.9607  2037.4857 
  2099.9657  2000.0000  2002.6177   2099.8479  1999.9607  2040.1034 
  2199.9315  2000.0000  2005.2354   2199.8137  1999.9607  2042.7211 
  2299.8972  2000.0000  2007.8531   2299.7794  1999.9607  2045.3388 
  2399.8629  2000.0000  2010.4708   2399.7451  1999.9607  2047.9565 
  2499.8287  2000.0000  2013.0885   2499.7109  1999.9607  2050.5742 
  2599.7944  2000.0000  2015.7062   2599.6766  1999.9607  2053.1919 
  2699.7601  2000.0000  2018.3239   2699.6423  1999.9607  2055.8096 
  2799.7259  2000.0000  2020.9416   2799.6081  1999.9607  2058.4273 
  2899.6916  2000.0000  2023.5593   2899.5738  1999.9607  2061.0450 
  2999.6573  2000.0000  2026.1769   2999.5395  1999.9607  2063.6627 
  3099.6231  2000.0000  2028.7946   3099.5053  1999.9607  2066.2804 
  3199.5888  2000.0000  2031.4123   3199.4710  1999.9607  2068.8981 
  3299.5545  2000.0000  2034.0300   3299.4367  1999.9607  2071.5158 
  3399.5203  2000.0000  2036.6477   3399.4025  1999.9607  2074.1334 
  3499.4860  2000.0000  2039.2654   3499.3682  1999.9607  2076.7511 
  3599.4517  2000.0000  2041.8831   3599.3339  1999.9607  2079.3688 
  3699.4175  2000.0000  2044.5008   3699.2997  1999.9607  2081.9865 
  3799.3832  2000.0000  2047.1185   3799.2654  1999.9607  2084.6042 
  3899.3489  2000.0000  2049.7362   3899.2311  1999.9607  2087.2219 
  3999.3146  2000.0000  2052.3539   3999.1969  1999.9607  2089.8396 
  2000.0000  2099.9962  2000.8727   1999.8822  2099.9569  2038.3584 
  2099.9657  2099.9962  2003.4903   2099.8479  2099.9569  2040.9761 
  2199.9315  2099.9962  2006.1080   2199.8137  2099.9569  2043.5938 
  2299.8972  2099.9962  2008.7257   2299.7794  2099.9569  2046.2115 
  2399.8629  2099.9962  2011.3434   2399.7451  2099.9569  2048.8292 
  2499.8287  2099.9962  2013.9611   2499.7109  2099.9569  2051.4468 
  2599.7944  2099.9962  2016.5788   2599.6766  2099.9569  2054.0645 
  2699.7601  2099.9962  2019.1965   2699.6423  2099.9569  2056.6822 
  2799.7259  2099.9962  2021.8142   2799.6081  2099.9569  2059.2999 
  2899.6916  2099.9962  2024.4319   2899.5738  2099.9569  2061.9176 
  2999.6573  2099.9962  2027.0496   2999.5395  2099.9569  2064.5353 
  3099.6231  2099.9962  2029.6673   3099.5053  2099.9569  2067.1530 
  3199.5888  2099.9962  2032.2850   3199.4710  2099.9569  2069.7707 
  3299.5545  2099.9962  2034.9027   3299.4367  2099.9569  2072.3884 
  3399.5203  2099.9962  2037.5204   3399.4025  2099.9569  2075.0061 
  3499.4860  2099.9962  2040.1381   3499.3682  2099.9569  2077.6238 
  3599.4517  2099.9962  2042.7558   3599.3339  2099.9569  2080.2415 
  3699.4175  2099.9962  2045.3735   3699.2997  2099.9569  2082.8592 
  3799.3832  2099.9962  2047.9912   3799.2654  2099.9569  2085.4769 
  3899.3489  2099.9962  2050.6089   3899.2311  2099.9569  2088.0946 
  3999.3146  2099.9962  2053.2266   3999.1969  2099.9569  2090.7123 
  2000.0000  2199.9924  2001.7453   1999.8822  2199.9531  2039.2310 
  2099.9657  2199.9924  2004.3630   2099.8479  2199.9531  2041.8487 
  2199.9315  2199.9924  2006.9807   2199.8137  2199.9531  2044.4664 
  2299.8972  2199.9924  2009.5984   2299.7794  2199.9531  2047.0841 
  2399.8629  2199.9924  2012.2161   2399.7451  2199.9531  2049.7018 
  2499.8287  2199.9924  2014.8338   2499.7109  2199.9531  2052.3195 
  2599.7944  2199.9924  2017.4515   2599.6766  2199.9531  2054.9372 
  2699.7601  2199.9924  2020.0692   2699.6423  2199.9531  2057.5549 
  2799.7259  2199.9924  2022.6869   2799.6081  2199.9531  2060.1726 
  2899.6916  2199.9924  2025.3046   2899.5738  2199.9531  2062.7903 
  2999.6573  2199.9924  2027.9223   2999.5395  2199.9531  2065.4080 
  3099.6231  2199.9924  2030.5400   3099.5053  2199.9531  2068.0257 
  3199.5888  2199.9924  2033.1576   3199.4710  2199.9531  2070.6434 
  3299.5545  2199.9924  2035.7753   3299.4367  2199.9531  2073.2611 
  3399.5203  2199.9924  2038.3930   3399.4025  2199.9531  2075.8788 
  3499.4860  2199.9924  2041.0107   3499.3682  2199.9531  2078.4965 
  3599.4517  2199.9924  2043.6284   3599.3339  2199.9531  2081.1141 
  3699.4175  2199.9924  2046.2461   3699.2997  2199.9531  2083.7318 
  3799.3832  2199.9924  2048.8638   3799.2654  2199.9531  2086.3495 
  3899.3489  2199.9924  2051.4815   3899.2311  2199.9531  2088.9672 
  3999.3146  2199.9924  2054.0992   3999.1969  2199.9531  2091.5849 
  2000.0000  2299.9886  2002.6180   1999.8822  2299.9493  2040.1037 
  2099.9657  2299.9886  2005.2357   2099.8479  2299.9493  2042.7214 
  2199.9315  2299.9886  2007.8534   2199.8137  2299.9493  2045.3391 
  2299.8972  2299.9886  2010.4710   2299.7794  2299.9493  2047.9568 
  2399.8629  2299.9886  2013.0887   2399.7451  2299.9493  2050.5745 
  2499.8287  2299.9886  2015.7064   2499.7109  2299.9493  2053.1922 
  2599.7944  2299.9886  2018.3241   2599.6766  2299.9493  2055.8099 
  2699.7601  2299.9886  2020.9418   2699.6423  2299.9493  2058.4275 
  2799.7259  2299.9886  2023.5595   2799.6081  2299.9493  2061.0452 
  2899.6916  2299.9886  2026.1772   2899.5738  2299.9493  2063.6629 
  2999.6573  2299.9886  2028.7949   2999.5395  2299.9493  2066.2806 
  3099.6231  2299.9886  2031.4126   3099.5053  2299.9493  2068.8983 
  3199.5888  2299.9886  2034.0303   3199.4710  2299.9493  2071.5160 
  3299.5545  2299.9886  2036.6480   3299.4367  2299.9493  2074.1337 
  3399.5203  2299.9886  2039.2657   3399.4025  2299.9493  2076.7514 
  3499.4860  2299.9886  2041.8834   3499.3682  2299.9493  2079.3691 
  3599.4517  2299.9886  2044.5011   3599.3339  2299.9493  2081.9868 
  3699.4175  2299.9886  2047.1188   3699.2997  2299.9493  2084.6045 
  3799.3832  2299.9886  2049.7365   3799.2654  2299.9493  2087.2222 
  3899.3489  2299.9886  2052.3542   3899.2311  2299.9493  2089.8399 
  3999.3146  2299.9886  2054.9719   3999.1969  2299.9493  2092.4576 
  2000.0000  2399.9848  2003.4906   1999.8822  2399.9455  2040.9763 
  2099.9657  2399.9848  2006.1083   2099.8479  2399.9455  2043.5940 
  2199.9315  2399.9848  2008.7260   2199.8137  2399.9455  2046.2117 
  2299.8972  2399.9848  2011.3437   2299.7794  2399.9455  2048.8294 
  2399.8629  2399.9848  2013.9614   2399.7451  2399.9455  2051.4471 
  2499.8287  2399.9848  2016.5791   2499.7109  2399.9455  2054.0648 
  2599.7944  2399.9848  2019.1968   2599.6766  2399.9455  2056.6825 
  2699.7601  2399.9848  2021.8145   2699.6423  2399.9455  2059.3002 
  2799.7259  2399.9848  2024.4322   2799.6081  2399.9455  2061.9179 
  2899.6916  2399.9848  2027.0499   2899.5738  2399.9455  2064.5356 
  2999.6573  2399.9848  2029.6676   2999.5395  2399.9455  2067.1533 
  3099.6231  2399.9848  2032.2853   3099.5053  2399.9455  2069.7710 
  3199.5888  2399.9848  2034.9030   3199.4710  2399.9455  2072.3887 
  3299.5545  2399.9848  2037.5206   3299.4367  2399.9455  2075.0064 
  3399.5203  2399.9848  2040.1383   3399.4025  2399.9455  2077.6241 
  3499.4860  2399.9848  2042.7560   3499.3682  2399.9455  2080.2418 
  3599.4517  2399.9848  2045.3737   3599.3339  2399.9455  2082.8595 
  3699.4175  2399.9848  2047.9914   3699.2997  2399.9455  2085.4771 
  3799.3832  2399.9848  2050.6091   3799.2654  2399.9455  2088.0948 
  3899.3489  2399.9848  2053.2268   3899.2311  2399.9455  2090.7125 
  3999.3146  2399.9848  2055.8445   3999.1969  2399.9455  2093.3302 
  2000.0000  2499.9810  2004.3633   1999.8822  2499.9417  2041.8490 
  2099.9657  2499.9810  2006.9810   2099.8479  2499.9417  2044.4667 
  2199.9315  2499.9810  2009.5987   2199.8137  2499.9417  2047.0844 
  2299.8972  2499.9810  2012.2164   2299.7794  2499.9417  2049.7021 
  2399.8629  2499.9810  2014.8340   2399.7451  2499.9417  2052.3198 
  2499.8287  2499.9810  2017.4517   2499.7109  2499.9417  2054.9375 
  2599.7944  2499.9810  2020.0694   2599.6766  2499.9417  2057.5552 
  2699.7601  2499.9810  2022.6871   2699.6423  2499.9417  2060.1729 
  2799.7259  2499.9810  2025.3048   2799.6081  2499.9417  2062.7905 
  2899.6916  2499.9810  2027.9225   2899.5738  2499.9417  2065.4082 
  2999.6573  2499.9810  2030.5402   2999.5395  2499.9417  2068.0259 
  3099.6231  2499.9810  2033.1579   3099.5053  2499.9417  2070.6436 
  3199.5888  2499.9810  2035.7756   3199.4710  2499.9417  2073.2613 
  3299.5545  2499.9810  2038.3933   3299.4367  2499.9417  2075.8790 
  3399.5203  2499.9810  2041.0110   3399.4025  2499.9417  2078.4967 
  3499.4860  2499.9810  2043.6287   3499.3682  2499.9417  2081.1144 
  3599.4517  2499.9810  2046.2464   3599.3339  2499.9417  2083.7321 
  3699.4175  2499.9810  2048.8641   3699.2997  2499.9417  2086.3498 
  3799.3832  2499.9810  2051.4818   3799.2654  2499.9417  2088.9675 
  3899.3489  2499.9810  2054.0995   3899.2311  2499.9417  2091.5852 
  3999.3146  2499.9810  2056.7172   3999.1969  2499.9417  2094.2029 
  2000.0000  2599.9772  2005.2359   1999.8822  2599.9379  2042.7216 
  2099.9657  2599.9772  2007.8536   2099.8479  2599.9379  2045.3393 
  2199.9315  2599.9772  2010.4713   2199.8137  2599.9379  2047.9570 
  2299.8972  2599.9772  2013.0890   2299.7794  2599.9379  2050.5747 
  2399.8629  2599.9772  2015.7067   2399.7451  2599.9379  2053.1924 
  2499.8287  2599.9772  2018.3244   2499.7109  2599.9379  2055.8101 
  2599.7944  2599.9772  2020.9421   2599.6766  2599.9379  2058.4278 
  2699.7601  2599.9772  2023.5598   2699.6423  2599.9379  2061.0455 
  2799.7259  2599.9772  2026.1775   2799.6081  2599.9379  2063.6632 
  2899.6916  2599.9772  2028.7952   2899.5738  2599.9379  2066.2809 
  2999.6573  2599.9772  2031.4129   2999.5395  2599.9379  2068.8986 
  3099.6231  2599.9772  2034.0306   3099.5053  2599.9379  2071.5163 
  3199.5888  2599.9772  2036.6483   3199.4710  2599.9379  2074.1340 
  3299.5545  2599.9772  2039.2660   3299.4367  2599.9379  2076.7517 
  3399.5203  2599.9772  2041.8836   3399.4025  2599.9379  2079.3694 
  3499.4860  2599.9772  2044.5013   3499.3682  2599.9379  2081.9871 
  3599.4517  2599.9772  2047.1190   3599.3339  2599.9379  2084.6048 
  3699.4175  2599.9772  2049.7367   3699.2997  2599.9379  2087.2225 
  3799.3832  2599.9772  2052.3544   3799.2654  2599.9379  2089.8402 
  3899.3489  2599.9772  2054.9721   3899.2311  2599.9379  2092.4578 
  3999.3146  2599.9772  2057.5898   3999.1969  2599.9379  2095.0755 
  2000.0000  2699.9733  2006.1086   1999.8822  2699.9341  2043.5943 
  2099.9657  2699.9733  2008.7263   2099.8479  2699.9341  2046.2120 
  2199.9315  2699.9733  2011.3440   2199.8137  2699.9341  2048.8297 
  2299.8972  2699.9733  2013.9617   2299.7794  2699.9341  2051.4474 
  2399.8629  2699.9733  2016.5794   2399.7451  2699.9341  2054.0651 
  2499.8287  2699.9733  2019.1970   2499.7109  2699.9341  2056.6828 
  2599.7944  2699.9733  2021.8147   2599.6766  2699.9341  2059.3005 
  2699.7601  2699.9733  2024.4324   2699.6423  2699.9341  2061.9182 
  2799.7259  2699.9733  2027.0501   2799.6081  2699.9341  2064.5359 
  2899.6916  2699.9733  2029.6678   2899.5738  2699.9341  2067.1536 
  2999.6573  2699.9733  2032.2855   2999.5395  2699.9341  2069.7712 
  3099.6231  2699.9733  2034.9032   3099.5053  2699.9341  2072.3889 
  3199.5888  2699.9733  2037.5209   3199.4710  2699.9341  2075.0066 
  3299.5545  2699.9733  2040.1386   3299.4367  2699.9341  2077.6243 
  3399.5203  2699.9733  2042.7563   3399.4025  2699.9341  2080.2420 
  3499.4860  2699.9733  2045.3740   3499.3682  2699.9341  2082.8597 
  3599.4517  2699.9733  2047.9917   3599.3339  2699.9341  2085.4774 
  3699.4175  2699.9733  2050.6094   3699.2997  2699.9341  2088.0951 
  3799.3832  2699.9733  2053.2271   3799.2654  2699.9341  2090.7128 
  3899.3489  2699.9733  2055.8448   3899.2311  2699.9341  2093.3305 
  3999.3146  2699.9733  2058.4625   3999.1969  2699.9341  2095.9482 
  2000.0000  2799.9695  2006.9812   1999.8822  2799.9303  2044.4670 
  2099.9657  2799.9695  2009.5989   2099.8479  2799.9303  2047.0846 
  2199.9315  2799.9695  2012.2166   2199.8137  2799.9303  2049.7023 
  2299.8972  2799.9695  2014.8343   2299.7794  2799.9303  2052.3200 
  2399.8629  2799.9695  2017.4520   2399.7451  2799.9303  2054.9377 
  2499.8287  2799.9695  2020.0697   2499.7109  2799.9303  2057.5554 
  2599.7944  2799.9695  2022.6874   2599.6766  2799.9303  2060.1731 
  2699.7601  2799.9695  2025.3051   2699.6423  2799.9303  2062.7908 
  2799.7259  2799.9695  2027.9228   2799.6081  2799.9303  2065.4085 
  2899.6916  2799.9695  2030.5405   2899.5738  2799.9303  2068.0262 
  2999.6573  2799.9695  2033.1582   2999.5395  2799.9303  2070.6439 
  3099.6231  2799.9695  2035.7759   3099.5053  2799.9303  2073.2616 
  3199.5888  2799.9695  2038.3936   3199.4710  2799.9303  2075.8793 
  3299.5545  2799.9695  2041.0113   3299.4367  2799.9303  2078.4970 
  3399.5203  2799.9695  2043.6290   3399.4025  2799.9303  2081.1147 
  3499.4860  2799.9695  2046.2467   3499.3682  2799.9303  2083.7324 
  3599.4517  2799.9695  2048.8643   3599.3339  2799.9303  2086.3501 
  3699.4175  2799.9695  2051.4820   3699.2997  2799.9303  2088.9678 
  3799.3832  2799.9695  2054.0997   3799.2654  2799.9303  2091.5855 
  3899.3489  2799.9695  2056.7174   3899.2311  2799.9303  2094.2032 
  3999.3146  2799.9695  2059.3351   3999.1969  2799.9303  2096.8208 
/ 

ZCORN
  2000.0000  2002.6177  2002.6177  2005.2354  2005.2354  2007.8531
  2007.8531  2010.4708  2010.4708  2013.0885  2013.0885  2015.7062
  2015.7062  2018.3239  2018.3239  2020.9416  2020.9416  2023.5593
  2023.5593  2026.1769  2026.1769  2028.7946  2028.7946  2031.4123
  2031.4123  2034.0300  2034.0300  2036.6477  2036.6477  2039.2654
  2039.2654  2041.8831  2041.8831  2044.5008  2044.5008  2047.1185
  2047.1185  2049.7362  2049.7362  2052.3539  2000.8727  2003.4903
  2003.4903  2006.1080  2006.1080  2008.7257  2008.7257  2011.3434
  2011.3434  2013.9611  2013.9611  2016.5788  2016.5788  2019.1965
  2019.1965  2021.8142  2021.8142  2024.4319  2024.4319  2027.0496
  2027.0496  2029.6673  2029.6673  2032.2850  2032.2850  2034.9027
  2034.9027  2037.5204  2037.5204  2040.1381  2040.1381  2042.7558
  2042.7558  2045.3735  2045.3735  2047.9912  2047.9912  2050.6089
  2050.6089  2053.2266  2000.8727  2003.4903  2003.4903  2006.1080
  2006.1080  2008.7257  2008.7257  2011.3434  2011.3434  2013.9611
  2013.9611  2016.5788  2016.5788  2019.1965  2019.1965  2021.8142
  2021.8142  2024.4319  2024.4319  2027.0496  2027.0496  2029.6673
  2029.6673  2032.2850  2032.2850  2034.9027  2034.9027  2037.5204
  2037.5204  2040.1381  2040.1381  2042.7558  2042.7558  2045.3735
  2045.3735  2047.9912  2047.9912  2050.6089  2050.6089  2053.2266
  2001.7453  2004.3630  2004.3630  2006.9807  2006.9807  2009.5984
  2009.5984  2012.2161  2012.2161  2014.8338  2014.8338  2017.4515
  2017.4515  2020.0692  2020.0692  2022.6869  2022.6869  2025.3046
  2025.3046  2027.9223  2027.9223  2030.5400  2030.5400  2033.1576
  2033.1576  2035.7753  2035.7753  2038.3930  2038.3930  2041.0107
  2041.0107  2043.6284  2043.6284  2046.2461  2046.2461  2048.8638
  2048.8638  2051.4815  2051.4815  2054.0992  2001.7453  2004.3630
  2004.3630  2006.9807  2006.9807  2009.5984  2009.5984  2012.2161
  2012.2161  2014.8338  2014.8338  2017.4515  2017.4515  2020.0692
  2020.0692  2022.6869  2022.6869  2025.3046  2025.3046  2027.9223
  2027.9223  2030.5400  2030.5400  2033.1576  2033.1576  2035.7753
  2035.7753  2038.3930  2038.3930  2041.0107  2041.0107  2043.6284
  2043.6284  2046.2461  2046.2461  2048.8638  2048.8638  2051.4815
  2051.4815  2054.0992  2002.6180  2005.2357  2005.2357  2007.8534
  2007.8534  2010.4710  2010.4710  2013.0887  2013.0887  2015.7064
  2015.7064  2018.3241  2018.3241  2020.9418  2020.9418  2023.5595
  2023.5595  2026.1772  2026.1772  2028.7949  2028.7949  2031.4126
  2031.4126  2034.0303  2034.0303  2036.6480  2036.6480  2039.2657
  2039.2657  2041.8834  2041.8834  2044.5011  2044.5011  2047.1188
  2047.1188  2049.7365  2049.7365  2052.3542  2052.3542  2054.9719
  2002.6180  2005.2357  2005.2357  2007.8534  2007.8534  2010.4710
  2010.4710  2013.0887  2013.0887  2015.7064  2015.7064  2018.3241
  2018.3241  2020.9418  2020.9418  2023.5595  2023.5595  2026.1772
  2026.1772  2028.7949  2028.7949  2031.4126  2031.4126  2034.0303
  2034.0303  2036.6480  2036.6480  2039.2657  2039.2657  2041.8834
  2041.8834  2044.5011  2044.5011  2047.1188  2047.1188  2049.7365
  2049.7365  2052.3542  2052.3542  2054.9719  2003.4906  2006.1083
  2006.1083  2008.7260  2008.7260  2011.3437  2011.3437  2013.9614
  2013.9614  2016.5791  2016.5791  2019.1968  2019.1968  2021.8145
  2021.8145  2024.4322  2024.4322  2027.0499  2027.0499  2029.6676
  2029.6676  2032.2853  2032.2853  2034.9030  2034.9030  2037.5206
  2037.5206  2040.1383  2040.1383  2042.7560  2042.7560  2045.3737
  2045.3737  2047.9914  2047.9914  2050.6091  2050.6091  2053.2268
  2053.2268  2055.8445  2003.4906  2006.1083  2006.1083  2008.7260
  2008.7260  2011.3437  2011.3437  2013.9614  2013.9614  2016.5791
  2016.5791  2019.1968  2019.1968  2021.8145  2021.8145  2024.4322
  2024.4322  2027.0499  2027.0499  2029.6676  2029.6676  2032.2853
  2032.2853  2034.9030  2034.9030  2037.5206  2037.5206  2040.1383
  2040.1383  2042.7560  2042.7560  2045.3737  2045.3737  2047.9914
  2047.9914  2050.6091  2050.6091  2053.2268  2053.2268  2055.8445
  2004.3633  2006.9810  2006.9810  2009.5987  2009.5987  2012.2164
  2012.2164  2014.8340  2014.8340  2017.4517  2017.4517  2020.0694
  2020.0694  2022.6871  2022.6871  2025.3048  2025.3048  2027.9225
  2027.9225  2030.5402  2030.5402  2033.1579  2033.1579  2035.7756
  2035.7756  2038.3933  2038.3933  2041.0110  2041.0110  2043.6287
  2043.6287  2046.2464  2046.2464  2048.8641  2048.8641  2051.4818
  2051.4818  2054.0995  2054.0995  2056.7172  2004.3633  2006.9810
  2006.9810  2009.5987  2009.5987  2012.2164  2012.2164  2014.8340
  2014.8340  2017.4517  2017.4517  2020.0694  2020.0694  2022.6871
  2022.6871  2025.3048  2025.3048  2027.9225  2027.9225  2030.5402
  2030.5402  2033.1579  2033.1579  2035.7756  2035.7756  2038.3933
  2038.3933  2041.0110  2041.0110  2043.6287  2043.6287  2046.2464
  2046.2464  2048.8641  2048.8641  2051.4818  2051.4818  2054.0995
  2054.0995  2056.7172  2005.2359  2007.8536  2007.8536  2010.4713
  2010.4713  2013.0890  2013.0890  2015.7067  2015.7067  2018.3244
  2018.3244  2020.9421  2020.9421  2023.5598  2023.5598  2026.1775
  2026.1775  2028.7952  2028.7952  2031.4129  2031.4129  2034.0306
  2034.0306  2036.6483  2036.6483  2039.2660  2039.2660  2041.8836
  2041.8836  2044.5013  2044.5013  2047.1190  2047.1190  2049.7367
  2049.7367  2052.3544  2052.3544  2054.9721  2054.9721  2057.5898
  2005.2359  2007.8536  2007.8536  2010.4713  2010.4713  2013.0890
  2013.0890  2015.7067  2015.7067  2018.3244  2018.3244  2020.9421
  2020.9421  2023.5598  2023.5598  2026.1775  2026.1775  2028.7952
  2028.7952  2031.4129  2031.4129  2034.0306  2034.0306  2036.6483
  2036.6483  2039.2660  2039.2660  2041.8836  2041.8836  2044.5013
  2044.5013  2047.1190  2047.1190  2049.7367  2049.7367  2052.3544
  2052.3544  2054.9721  2054.9721  2057.5898  2006.1086  2008.7263
  2008.7263  2011.3440  2011.3440  2013.9617  2013.9617  2016.5794
  2016.5794  2019.1970  2019.1970  2021.8147  2021.8147  2024.4324
  2024.4324  2027.0501  2027.0501  2029.6678  2029.6678  2032.2855
  2032.2855  2034.9032  2034.9032  2037.5209  2037.5209  2040.1386
  2040.1386  2042.7563  2042.7563  2045.3740  2045.3740  2047.9917
  2047.9917  2050.6094  2050.6094  2053.2271  2053.2271  2055.8448
  2055.8448  2058.4625  2006.1086  2008.7263  2008.7263  2011.3440
  2011.3440  2013.9617  2013.9617  2016.5794  2016.5794  2019.1970
  2019.1970  2021.8147  2021.8147  2024.4324  2024.4324  2027.0501
  2027.0501  2029.6678  2029.6678  2032.2855  2032.2855  2034.9032
  2034.9032  2037.5209  2037.5209  2040.1386  2040.1386  2042.7563
  2042.7563  2045.3740  2045.3740  2047.9917  2047.9917  2050.6094
  2050.6094  2053.2271  2053.2271  2055.8448  2055.8448  2058.4625
  2006.9812  2009.5989  2009.5989  2012.2166  2012.2166  2014.8343
  2014.8343  2017.4520  2017.4520  2020.0697  2020.0697  2022.6874
  2022.6874  2025.3051  2025.3051  2027.9228  2027.9228  2030.5405
  2030.5405  2033.1582  2033.1582  2035.7759  2035.7759  2038.3936
  2038.3936  2041.0113  2041.0113  2043.6290  2043.6290  2046.2467
  2046.2467  2048.8643  2048.8643  2051.4820  2051.4820  2054.0997
  2054.0997  2056.7174  2056.7174  2059.3351  2002.4990  2005.1167
  2005.1167  2007.7344  2007.7344  2010.3521  2010.3521  2012.9698
  2012.9698  2015.5875  2015.5875  2018.2052  2018.2052  2020.8229
  2020.8229  2023.4406  2023.4406  2026.0583  2026.0583  2028.6760
  2028.6760  2031.2937  2031.2937  2033.9114  2033.9114  2036.5291
  2036.5291  2039.1468  2039.1468  2041.7645  2041.7645  2044.3822
  2044.3822  2046.9999  2046.9999  2049.6176  2049.6176  2052.2352
  2052.2352  2054.8529  2003.3717  2005.9894  2005.9894  2008.6071
  2008.6071  2011.2248  2011.2248  2013.8425  2013.8425  2016.4602
  2016.4602  2019.0779  2019.0779  2021.6956  2021.6956  2024.3133
  2024.3133  2026.9310  2026.9310  2029.5486  2029.5486  2032.1663
  2032.1663  2034.7840  2034.7840  2037.4017  2037.4017  2040.0194
  2040.0194  2042.6371  2042.6371  2045.2548  2045.2548  2047.8725
  2047.8725  2050.4902  2050.4902  2053.1079  2053.1079  2055.7256
  2003.3717  2005.9894  2005.9894  2008.6071  2008.6071  2011.2248
  2011.2248  2013.8425  2013.8425  2016.4602  2016.4602  2019.0779
  2019.0779  2021.6956  2021.6956  2024.3133  2024.3133  2026.9310
  2026.9310  2029.5486  2029.5486  2032.1663  2032.1663  2034.7840
  2034.7840  2037.4017  2037.4017  2040.0194  2040.0194  2042.6371
  2042.6371  2045.2548  2045.2548  2047.8725  2047.8725  2050.4902
  2050.4902  2053.1079  2053.1079  2055.7256  2004.2444  2006.8621
  2006.8621  2009.4797  2009.4797  2012.0974  2012.0974  2014.7151
  2014.7151  2017.3328  2017.3328  2019.9505  2019.9505  2022.5682
  2022.5682  2025.1859  2025.1859  2027.8036  2027.8036  2030.4213
  2030.4213  2033.0390  2033.0390  2035.6567  2035.6567  2038.2744
  2038.2744  2040.8921  2040.8921  2043.5098  2043.5098  2046.1275
  2046.1275  2048.7452  2048.7452  2051.3629  2051.3629  2053.9806
  2053.9806  2056.5983  2004.2444  2006.8621  2006.8621  2009.4797
  2009.4797  2012.0974  2012.0974  2014.7151  2014.7151  2017.3328
  2017.3328  2019.9505  2019.9505  2022.5682  2022.5682  2025.1859
  2025.1859  2027.8036  2027.8036  2030.4213  2030.4213  2033.0390
  2033.0390  2035.6567  2035.6567  2038.2744  2038.2744  2040.8921
  2040.8921  2043.5098  2043.5098  2046.1275  2046.1275  2048.7452
  2048.7452  2051.3629  2051.3629  2053.9806  2053.9806  2056.5983
  2005.1170  2007.7347  2007.7347  2010.3524  2010.3524  2012.9701
  2012.9701  2015.5878  2015.5878  2018.2055  2018.2055  2020.8232
  2020.8232  2023.4409  2023.4409  2026.0586  2026.0586  2028.6763
  2028.6763  2031.2940  2031.2940  2033.9117  2033.9117  2036.5293
  2036.5293  2039.1470  2039.1470  2041.7647  2041.7647  2044.3824
  2044.3824  2047.0001  2047.0001  2049.6178  2049.6178  2052.2355
  2052.2355  2054.8532  2054.8532  2057.4709  2005.1170  2007.7347
  2007.7347  2010.3524  2010.3524  2012.9701  2012.9701  2015.5878
  2015.5878  2018.2055  2018.2055  2020.8232  2020.8232  2023.4409
  2023.4409  2026.0586  2026.0586  2028.6763  2028.6763  2031.2940
  2031.2940  2033.9117  2033.9117  2036.5293  2036.5293  2039.1470
  2039.1470  2041.7647  2041.7647  2044.3824  2044.3824  2047.0001
  2047.0001  2049.6178  2049.6178  2052.2355  2052.2355  2054.8532
  2054.8532  2057.4709  2005.9897  2008.6074  2008.6074  2011.2251
  2011.2251  2013.8427  2013.8427  2016.4604  2016.4604  2019.0781
  2019.0781  2021.6958  2021.6958  2024.3135  2024.3135  2026.9312
  2026.9312  2029.5489  2029.5489  2032.1666  2032.1666  2034.7843
  2034.7843  2037.4020  2037.4020  2040.0197  2040.0197  2042.6374
  2042.6374  2045.2551  2045.2551  2047.8728  2047.8728  2050.4905
  2050.4905  2053.1082  2053.1082  2055.7259  2055.7259  2058.3436
  2005.9897  2008.6074  2008.6074  2011.2251  2011.2251  2013.8427
  2013.8427  2016.4604  2016.4604  2019.0781  2019.0781  2021.6958
  2021.6958  2024.3135  2024.3135  2026.9312  2026.9312  2029.5489
  2029.5489  2032.1666  2032.1666  2034.7843  2034.7843  2037.4020
  2037.4020  2040.0197  2040.0197  2042.6374  2042.6374  2045.2551
  2045.2551  2047.8728  2047.8728  2050.4905  2050.4905  2053.1082
  2053.1082  2055.7259  2055.7259  2058.3436  2006.8623  2009.4800
  2009.4800  2012.0977  2012.0977  2014.7154  2014.7154  2017.3331
  2017.3331  2019.9508  2019.9508  2022.5685  2022.5685  2025.1862
  2025.1862  2027.8039  2027.8039  2030.4216  2030.4216  2033.0393
  2033.0393  2035.6570  2035.6570  2038.2747  2038.2747  2040.8923
  2040.8923  2043.5100  2043.5100  2046.1277  2046.1277  2048.7454
  2048.7454  2051.3631  2051.3631  2053.9808  2053.9808  2056.5985
  2056.5985  2059.2162  2006.8623  2009.4800  2009.4800  2012.0977
  2012.0977  2014.7154  2014.7154  2017.3331  2017.3331  2019.9508
  2019.9508  2022.5685  2022.5685  2025.1862  2025.1862  2027.8039
  2027.8039  2030.4216  2030.4216  2033.0393  2033.0393  2035.6570
  2035.6570  2038.2747  2038.2747  2040.8923  2040.8923  2043.5100
  2043.5100  2046.1277  2046.1277  2048.7454  2048.7454  2051.3631
  2051.3631  2053.9808  2053.9808  2056.5985  2056.5985  2059.2162
  2007.7350  2010.3527  2010.3527  2012.9704  2012.9704  2015.5881
  2015.5881  2018.2057  2018.2057  2020.8234  2020.8234  2023.4411
  2023.4411  2026.0588  2026.0588  2028.6765  2028.6765  2031.2942
  2031.2942  2033.9119  2033.9119  2036.5296  2036.5296  2039.1473
  2039.1473  2041.7650  2041.7650  2044.3827  2044.3827  2047.0004
  2047.0004  2049.6181  2049.6181  2052.2358  2052.2358  2054.8535
  2054.8535  2057.4712  2057.4712  2060.0889  2007.7350  2010.3527
  2010.3527  2012.9704  2012.9704  2015.5881  2015.5881  2018.2057
  2018.2057  2020.8234  2020.8234  2023.4411  2023.4411  2026.0588
  2026.0588  2028.6765  2028.6765  2031.2942  2031.2942  2033.9119
  2033.9119  2036.5296  2036.5296  2039.1473  2039.1473  2041.7650
  2041.7650  2044.3827  2044.3827  2047.0004  2047.0004  2049.6181
  2049.6181  2052.2358  2052.2358  2054.8535  2054.8535  2057.4712
  2057.4712  2060.0889  2008.6076  2011.2253  2011.2253  2013.8430
  2013.8430  2016.4607  2016.4607  2019.0784  2019.0784  2021.6961
  2021.6961  2024.3138  2024.3138  2026.9315  2026.9315  2029.5492
  2029.5492  2032.1669  2032.1669  2034.7846  2034.7846  2037.4023
  2037.4023  2040.0200  2040.0200  2042.6377  2042.6377  2045.2554
  2045.2554  2047.8730  2047.8730  2050.4907  2050.4907  2053.1084
  2053.1084  2055.7261  2055.7261  2058.3438  2058.3438  2060.9615
  2008.6076  2011.2253  2011.2253  2013.8430  2013.8430  2016.4607
  2016.4607  2019.0784  2019.0784  2021.6961  2021.6961  2024.3138
  2024.3138  2026.9315  2026.9315  2029.5492  2029.5492  2032.1669
  2032.1669  2034.7846  2034.7846  2037.4023  2037.4023  2040.0200
  2040.0200  2042.6377  2042.6377  2045.2554  2045.2554  2047.8730
  2047.8730  2050.4907  2050.4907  2053.1084  2053.1084  2055.7261
  2055.7261  2058.3438  2058.3438  2060.9615  2009.4803  2012.0980
  2012.0980  2014.7157  2014.7157  2017.3334  2017.3334  2019.9511
  2019.9511  2022.5688  2022.5688  2025.1864  2025.1864  2027.8041
  2027.8041  2030.4218  2030.4218  2033.0395  2033.0395  2035.6572
  2035.6572  2038.2749  2038.2749  2040.8926  2040.8926  2043.5103
  2043.5103  2046.1280  2046.1280  2048.7457  2048.7457  2051.3634
  2051.3634  2053.9811  2053.9811  2056.5988  2056.5988  2059.2165
  2059.2165  2061.8342  2002.4990  2005.1167  2005.1167  2007.7344
  2007.7344  2010.3521  2010.3521  2012.9698  2012.9698  2015.5875
  2015.5875  2018.2052  2018.2052  2020.8229  2020.8229  2023.4406
  2023.4406  2026.0583  2026.0583  2028.6760  2028.6760  2031.2937
  2031.2937  2033.9114  2033.9114  2036.5291  2036.5291  2039.1468
  2039.1468  2041.7645  2041.7645  2044.3822  2044.3822  2046.9999
  2046.9999  2049.6176  2049.6176  2052.2352  2052.2352  2054.8529
  2003.3717  2005.9894  2005.9894  2008.6071  2008.6071  2011.2248
  2011.2248  2013.8425  2013.8425  2016.4602  2016.4602  2019.0779
  2019.0779  2021.6956  2021.6956  2024.3133  2024.3133  2026.9310
  2026.9310  2029.5486  2029.5486  2032.1663  2032.1663  2034.7840
  2034.7840  2037.4017  2037.4017  2040.0194  2040.0194  2042.6371
  2042.6371  2045.2548  2045.2548  2047.8725  2047.8725  2050.4902
  2050.4902  2053.1079  2053.1079  2055.7256  2003.3717  2005.9894
  2005.9894  2008.6071  2008.6071  2011.2248  2011.2248  2013.8425
  2013.8425  2016.4602  2016.4602  2019.0779  2019.0779  2021.6956
  2021.6956  2024.3133  2024.3133  2026.9310  2026.9310  2029.5486
  2029.5486  2032.1663  2032.1663  2034.7840  2034.7840  2037.4017
  2037.4017  2040.0194  2040.0194  2042.6371  2042.6371  2045.2548
  2045.2548  2047.8725  2047.8725  2050.4902  2050.4902  2053.1079
  2053.1079  2055.7256  2004.2444  2006.8621  2006.8621  2009.4797
  2009.4797  2012.0974  2012.0974  2014.7151  2014.7151  2017.3328
  2017.3328  2019.9505  2019.9505  2022.5682  2022.5682  2025.1859
  2025.1859  2027.8036  2027.8036  2030.4213  2030.4213  2033.0390
  2033.0390  2035.6567  2035.6567  2038.2744  2038.2744  2040.8921
  2040.8921  2043.5098  2043.5098  2046.1275  2046.1275  2048.7452
  2048.7452  2051.3629  2051.3629  2053.9806  2053.9806  2056.5983
  2004.2444  2006.8621  2006.8621  2009.4797  2009.4797  2012.0974
  2012.0974  2014.7151  2014.7151  2017.3328  2017.3328  2019.9505
  2019.9505  2022.5682  2022.5682  2025.1859  2025.1859  2027.8036
  2027.8036  2030.4213  2030.4213  2033.0390  2033.0390  2035.6567
  2035.6567  2038.2744  2038.2744  2040.8921  2040.8921  2043.5098
  2043.5098  2046.1275  2046.1275  2048.7452  2048.7452  2051.3629
  2051.3629  2053.9806  2053.9806  2056.5983  2005.1170  2007.7347