-- This reservoir simulation deck is made available under the Open Database
-- License: http://opendatacommons.org/licenses/odbl/1.0/. Any rights in
-- individual contents of the database are licensed under the Database Contents
-- License: http://opendatacommons.org/licenses/dbcl/1.0/

-- Copyright (C) 2018 Statoil

SPECGRID
 6 5 7 1 F / 

COORD
  2000.0000  2000.0000  2500.0000   1999.9127  1999.8255  2534.9733 
  2099.9848  2000.0000  2501.7452   2099.8975  1999.8255  2536.7186 
  2199.9695  2000.0000  2503.4905   2199.8823  1999.8255  2538.4638 
  2299.9543  2000.0000  2517.2357   2299.8670  1999.8255  2552.2091 
  2399.9391  2000.0000  2518.9810   2399.8518  1999.8255  2553.9543 
  2499.9238  2000.0000  2520.7262   2499.8366  1999.8255  2555.6996 
  2599.9086  2000.0000  2522.4714   2599.8214  1999.8255  2557.4448 
  2000.0000  2099.9391  2503.4899   1999.9127  2099.7646  2538.4633 
  2099.9848  2099.9391  2505.2352   2099.8975  2099.7646  2540.2085 
  2199.9695  2099.9391  2506.9804   2199.8823  2099.7646  2541.9538 
  2299.9543  2099.9391  2520.7257   2299.8670  2099.7646  2555.6990 
  2399.9391  2099.9391  2522.4709   2399.8518  2099.7646  2557.4443 
  2499.9238  2099.9391  2524.2162   2499.8366  2099.7646  2559.1895 
  2599.9086  2099.9391  2525.9614   2599.8214  2099.7646  2560.9347 
  2000.0000  2199.8782  2506.9799   1999.9127  2199.7037  2541.9532 
  2099.9848  2199.8782  2508.7251   2099.8975  2199.7037  2543.6985 
  2199.9695  2199.8782  2510.4704   2199.8823  2199.7037  2545.4437 
  2299.9543  2199.8782  2524.2156   2299.8670  2199.7037  2559.1890 
  2399.9391  2199.8782  2525.9609   2399.8518  2199.7037  2560.9342 
  2499.9238  2199.8782  2527.7061   2499.8366  2199.7037  2562.6795 
  2599.9086  2199.8782  2529.4513   2599.8214  2199.7037  2564.4247 
  2000.0000  2299.8172  2510.4698   1999.9127  2299.6428  2545.4432 
  2099.9848  2299.8172  2512.2151   2099.8975  2299.6428  2547.1884 
  2199.9695  2299.8172  2513.9603   2199.8823  2299.6428  2548.9337 
  2299.9543  2299.8172  2527.7056   2299.8670  2299.6428  2562.6789 
  2399.9391  2299.8172  2529.4508   2399.8518  2299.6428  2564.4242 
  2499.9238  2299.8172  2531.1961   2499.8366  2299.6428  2566.1694 
  2599.9086  2299.8172  2532.9413   2599.8214  2299.6428  2567.9146 
  2000.0000  2399.7563  2513.9598   1999.9127  2399.5818  2548.9331 
  2099.9848  2399.7563  2515.7050   2099.8975  2399.5818  2550.6784 
  2199.9695  2399.7563  2517.4503   2199.8823  2399.5818  2552.4236 
  2299.9543  2399.7563  2531.1955   2299.8670  2399.5818  2566.1689 
  2399.9391  2399.7563  2532.9408   2399.8518  2399.5818  2567.9141 
  2499.9238  2399.7563  2534.6860   2499.8366  2399.5818  2569.6594 
  2599.9086  2399.7563  2536.4312   2599.8214  2399.5818  2571.4046 
  2000.0000  2499.6954  2517.4497   1999.9127  2499.5209  2552.4231 
  2099.9848  2499.6954  2519.1950   2099.8975  2499.5209  2554.1683 
  2199.9695  2499.6954  2520.9402   2199.8823  2499.5209  2555.9136 
  2299.9543  2499.6954  2534.6855   2299.8670  2499.5209  2569.6588 
  2399.9391  2499.6954  2536.4307   2399.8518  2499.5209  2571.4041 
  2499.9238  2499.6954  2538.1760   2499.8366  2499.5209  2573.1493 
  2599.9086  2499.6954  2539.9212   2599.8214  2499.5209  2574.8945 
/ 

ZCORN
  2500.0000  2501.7452  2501.7452  2503.4905  2503.4905  2505.2357
  2517.2357  2518.9810  2518.9810  2520.7262  2520.7262  2522.4714
  2503.4899  2505.2352  2505.2352  2506.9804  2506.9804  2508.7257
  2520.7257  2522.4709  2522.4709  2524.2162  2524.2162  2525.9614
  2503.4899  2505.2352  2505.2352  2506.9804  2506.9804  2508.7257
  2520.7257  2522.4709  2522.4709  2524.2162  2524.2162  2525.9614
  2506.9799  2508.7251  2508.7251  2510.4704  2510.4704  2512.2156
  2524.2156  2525.9609  2525.9609  2527.7061  2527.7061  2529.4513
  2506.9799  2508.7251  2508.7251  2510.4704  2510.4704  2512.2156
  2524.2156  2525.9609  2525.9609  2527.7061  2527.7061  2529.4513
  2510.4698  2512.2151  2512.2151  2513.9603  2513.9603  2515.7056
  2527.7056  2529.4508  2529.4508  2531.1961  2531.1961  2532.9413
  2510.4698  2512.2151  2512.2151  2513.9603  2513.9603  2515.7056
  2527.7056  2529.4508  2529.4508  2531.1961  2531.1961  2532.9413
  2513.9598  2515.7050  2515.7050  2517.4503  2517.4503  2519.1955
  2531.1955  2532.9408  2532.9408  2534.6860  2534.6860  2536.4312
  2513.9598  2515.7050  2515.7050  2517.4503  2517.4503  2519.1955
  2531.1955  2532.9408  2532.9408  2534.6860  2534.6860  2536.4312
  2517.4497  2519.1950  2519.1950  2520.9402  2520.9402  2522.6855
  2534.6855  2536.4307  2536.4307  2538.1760  2538.1760  2539.9212
  2504.9962  2506.7414  2506.7414  2508.4867  2508.4867  2510.2319
  2522.2319  2523.9772  2523.9772  2525.7224  2525.7224  2527.4676
  2508.4861  2510.2314  2510.2314  2511.9766  2511.9766  2513.7219
  2525.7219  2527.4671  2527.4671  2529.2123  2529.2123  2530.9576
  2508.4861  2510.2314  2510.2314  2511.9766  2511.9766  2513.7219
  2525.7219  2527.4671  2527.4671  2529.2123  2529.2123  2530.9576
  2511.9761  2513.7213  2513.7213  2515.4666  2515.4666  2517.2118
  2529.2118  2530.9571  2530.9571  2532.7023  2532.7023  2534.4475
  2511.9761  2513.7213  2513.7213  2515.4666  2515.4666  2517.2118
  2529.2118  2530.9571  2530.9571  2532.7023  2532.7023  2534.4475
  2515.4660  2517.2113  2517.2113  2518.9565  2518.9565  2520.7018
  2532.7018  2534.4470  2534.4470  2536.1922  2536.1922  2537.9375
  2515.4660  2517.2113  2517.2113  2518.9565  2518.9565  2520.7018
  2532.7018  2534.4470  2534.4470  2536.1922  2536.1922  2537.9375
  2518.9560  2520.7012  2520.7012  2522.4465  2522.4465  2524.1917
  2536.1917  2537.9370  2537.9370  2539.6822  2539.6822  2541.4274
  2518.9560  2520.7012  2520.7012  2522.4465  2522.4465  2524.1917
  2536.1917  2537.9370  2537.9370  2539.6822  2539.6822  2541.4274
  2522.4459  2524.1912  2524.1912  2525.9364  2525.9364  2527.6817
  2539.6817  2541.4269  2541.4269  2543.1721  2543.1721  2544.9174
  2504.9962  2506.7414  2506.7414  2508.4867  2508.4867  2510.2319
  2522.2319  2523.9772  2523.9772  2525.7224  2525.7224  2527.4676
  2508.4861  2510.2314  2510.2314  2511.9766  2511.9766  2513.7219
  2525.7219  2527.4671  2527.4671  2529.2123  2529.2123  2530.9576
  2508.4861  2510.2314  2510.2314  2511.9766  2511.9766  2513.7219
  2525.7219  2527.4671  2527.4671  2529.2123  2529.2123  2530.9576
  2511.9761  2513.7213  2513.7213  2515.4666  2515.4666  2517.2118
  2529.2118  2530.9571  2530.9571  2532.7023  2532.7023  2534.4475
  2511.9761  2513.7213  2513.7213  2515.4666  2515.4666  2517.2118
  2529.2118  2530.9571  2530.9571  2532.7023  2532.7023  2534.4475
  2515.4660  2517.2113  2517.2113  2518.9565  2518.9565  2520.7018
  2532.7018  2534.4470  2534.4470  2536.1922  2536.1922  2537.9375
  2515.4660  2517.2113  2517.2113  2518.9565  2518.9565  2520.7018
  2532.7018  2534.4470  2534.4470  2536.1922  2536.1922  2537.9375
  2518.9560  2520.7012  2520.7012  2522.4465  2522.4465  2524.1917
  2536.1917  2537.9370  2537.9370  2539.6822  2539.6822  2541.4274
  2518.9560  2520.7012  2520.7012  2522.4465  2522.4465  2524.1917
  2536.1917  2537.9370  2537.9370  2539.6822  2539.6822  2541.4274
  2522.4459  2524.1912  2524.1912  2525.9364  2525.9364  2527.6817
  2539.6817  2541.4269  2541.4269  2543.1721  2543.1721  2544.9174
  2509.9924  2511.7376  2511.7376  2513.4829  2513.4829  2515.2281
  2527.2281  2528.9733  2528.9733  2530.7186  2530.7186  2532.4638
  2513.4823  2515.2276  2515.2276  2516.9728  2516.9728  2518.7181
  2530.7181  2532.4633  2532.4633  2534.2085  2534.2085  2535.9538
  2513.4823  2515.2276  2515.2276  2516.9728  2516.9728  2518.7181
  2530.7181  2532.4633  2532.4633  2534.2085  2534.2085  2535.9538
  2516.9723  2518.7175  2518.7175  2520.4628  2520.4628  2522.2080
  2534.2080  2535.9532  2535.9532  2537.6985  2537.6985  2539.4437
  2516.9723  2518.7175  2518.7175  2520.4628  2520.4628  2522.2080
  2534.2080  2535.9532  2535.9532  2537.6985  2537.6985  2539.4437
  2520.4622  2522.2075  2522.2075  2523.9527  2523.9527  2525.6980
  2537.6980  2539.4432  2539.4432  2541.1884  2541.1884  2542.9337
  2520.4622  2522.2075  2522.2075  2523.9527  2523.9527  2525.6980
  2537.6980  2539.4432  2539.4432  2541.1884  2541.1884  2542.9337
  2523.9522  2525.6974  2525.6974  2527.4427  2527.4427  2529.1879
  2541.1879  2542.9331  2542.9331  2544.6784  2544.6784  2546.4236
  2523.9522  2525.6974  2525.6974  2527.4427  2527.4427  2529.1879
  2541.1879  2542.9331  2542.9331  2544.6784  2544.6784  2546.4236
  2527.4421  2529.1874  2529.1874  2530.9326  2530.9326  2532.6779
  2544.6779  2546.4231  2546.4231  2548.1683  2548.1683  2549.9136
  2509.9924  2511.7376  2511.7376  2513.4829  2513.4829  2515.2281
  2527.2281  2528.9733  2528.9733  2530.7186  2530.7186  2532.4638
  2513.4823  2515.2276  2515.2276  2516.9728  2516.9728  2518.7181
  2530.7181  2532.4633  2532.4633  2534.2085  2534.2085  2535.9538
  2513.4823  2515.2276  2515.2276  2516.9728  2516.9728  2518.7181
  2530.7181  2532.4633  2532.4633  2534.2085  2534.2085  2535.9538
  2516.9723  2518.7175  2518.7175  2520.4628  2520.4628  2522.2080
  2534.2080  2535.9532  2535.9532  2537.6985  2537.6985  2539.4437
  2516.9723  2518.7175  2518.7175  2520.4628  2520.4628  2522.2080
  2534.2080  2535.9532  2535.9532  2537.6985  2537.6985  2539.4437
  2520.4622  2522.2075  2522.2075  2523.9527  2523.9527  2525.6980
  2537.6980  2539.4432  2539.4432  2541.1884  2541.1884  2542.9337
  2520.4622  2522.2075  2522.2075  2523.9527  2523.9527  2525.6980
  2537.6980  2539.4432  2539.4432  2541.1884  2541.1884  2542.9337
  2523.9522  2525.6974  2525.6974  2527.4427  2527.4427  2529.1879
  2541.1879  2542.9331  2542.9331  2544.6784  2544.6784  2546.4236
  2523.9522  2525.6974  2525.6974  2527.4427  2527.4427  2529.1879
  2541.1879  2542.9331  2542.9331  2544.6784  2544.6784  2546.4236
  2527.4421  2529.1874  2529.1874  2530.9326  2530.9326  2532.6779
  2544.6779  2546.4231  2546.4231  2548.1683  2548.1683  2549.9136
  2514.9886  2516.7338  2516.7338  2518.4791  2518.4791  2520.2243
  2532.2243  2533.9695  2533.9695  2535.7148  2535.7148  2537.4600
  2518.4785  2520.2238  2520.2238  2521.9690  2521.9690  2523.7142
  2535.7142  2537.4595  2537.4595  2539.2047  2539.2047  2540.9500
  2518.4785  2520.2238  2520.2238  2521.9690  2521.9690  2523.7142
  2535.7142  2537.4595  2537.4595  2539.2047  2539.2047  2540.9500
  2521.9685  2523.7137  2523.7137  2525.4590  2525.4590  2527.2042
  2539.2042  2540.9494  2540.9494  2542.6947  2542.6947  2544.4399
  2521.9685  2523.7137  2523.7137  2525.4590  2525.4590  2527.2042
  2539.2042  2540.9494  2540.9494  2542.6947  2542.6947  2544.4399
  2525.4584  2527.2037  2527.2037  2528.9489  2528.9489  2530.6941
  2542.6941  2544.4394  2544.4394  2546.1846  2546.1846  2547.9299
  2525.4584  2527.2037  2527.2037  2528.9489  2528.9489  2530.6941
  2542.6941  2544.4394  2544.4394  2546.1846  2546.1846  2547.9299
  2528.9484  2530.6936  2530.6936  2532.4389  2532.4389  2534.1841
  2546.1841  2547.9293  2547.9293  2549.6746  2549.6746  2551.4198
  2528.9484  2530.6936  2530.6936  2532.4389  2532.4389  2534.1841
  2546.1841  2547.9293  2547.9293  2549.6746  2549.6746  2551.4198
  2532.4383  2534.1836  2534.1836  2535.9288  2535.9288  2537.6740
  2549.6740  2551.4193  2551.4193  2553.1645  2553.1645  2554.9098
  2514.9886  2516.7338  2516.7338  2518.4791  2518.4791  2520.2243
  2532.2243  2533.9695  2533.9695  2535.7148  2535.7148  2537.4600
  2518.4785  2520.2238  2520.2238  2521.9690  2521.9690  2523.7142
  2535.7142  2537.4595  2537.4595  2539.2047  2539.2047  2540.9500
  2518.4785  2520.2238  2520.2238  2521.9690  2521.9690  2523.7142
  2535.7142  2537.4595  2537.4595  2539.2047  2539.2047  2540.9500
  2521.9685  2523.7137  2523.7137  2525.4590  2525.4590  2527.2042
  2539.2042  2540.9494  2540.9494  2542.6947  2542.6947  2544.4399
  2521.9685  2523.7137  2523.7137  2525.4590  2525.4590  2527.2042
  2539.2042  2540.9494  2540.9494  2542.6947  2542.6947  2544.4399
  2525.4584  2527.2037  2527.2037  2528.9489  2528.9489  2530.6941
  2542.6941  2544.4394  2544.4394  2546.1846  2546.1846  2547.9299
  2525.4584  2527.2037  2527.2037  2528.9489  2528.9489  2530.6941
  2542.6941  2544.4394  2544.4394  2546.1846  2546.1846  2547.9299
  2528.9484  2530.6936  2530.6936  2532.4389  2532.4389  2534.1841
  2546.1841  2547.9293  2547.9293  2549.6746  2549.6746  2551.4198
  2528.9484  2530.6936  2530.6936  2532.4389  2532.4389  2534.1841
  2546.1841  2547.9293  2547.9293  2549.6746  2549.6746  2551.4198
  2532.4383  2534.1836  2534.1836  2535.9288  2535.9288  2537.6740
  2549.6740  2551.4193  2551.4193  2553.1645  2553.1645  2554.9098
  2519.9848  2521.7300  2521.7300  2523.4753  2523.4753  2525.2205
  2537.2205  2538.9657  2538.9657  2540.7110  2540.7110  2542.4562
  2523.4747  2525.2200  2525.2200  2526.9652  2526.9652  2528.7104
  2540.7104  2542.4557  2542.4557  2544.2009  2544.2009  2545.9462
  2523.4747  2525.2200  2525.2200  2526.9652  2526.9652  2528.7104
  2540.7104  2542.4557  2542.4557  2544.2009  2544.2009  2545.9462
  2526.9647  2528.7099  2528.7099  2530.4552  2530.4552  2532.2004
  2544.2004  2545.9456  2545.9456  2547.6909  2547.6909  2549.4361
  2526.9647  2528.7099  2528.7099  2530.4552  2530.4552  2532.2004
  2544.2004  2545.9456  2545.9456  2547.6909  2547.6909  2549.4361
  2530.4546  2532.1999  2532.1999  2533.9451  2533.9451  2535.6903
  2547.6903  2549.4356  2549.4356  2551.1808  2551.1808  2552.9261
  2530.4546  2532.1999  2532.1999  2533.9451  2533.9451  2535.6903
  2547.6903  2549.4356  2549.4356  2551.1808  2551.1808  2552.9261
  2533.9446  2535.6898  2535.6898  2537.4351  2537.4351  2539.1803
  2551.1803  2552.9255  2552.9255  2554.6708  2554.6708  2556.4160
  2533.9446  2535.6898  2535.6898  2537.4351  2537.4351  2539.1803
  2551.1803  2552.9255  2552.9255  2554.6708  2554.6708  2556.4160
  2537.4345  2539.1798  2539.1798  2540.9250  2540.9250  2542.6702
  2554.6702  2556.4155  2556.4155  2558.1607  2558.1607  2559.9060
  2519.9848  2521.7300  2521.7300  2523.4753  2523.4753  2525.2205
  2537.2205  2538.9657  2538.9657  2540.7110  2540.7110  2542.4562
  2523.4747  2525.2200  2525.2200  2526.9652  2526.9652  2528.7104
  2540.7104  2542.4557  2542.4557  2544.2009  2544.2009  2545.9462
  2523.4747  2525.2200  2525.2200  2526.9652  2526.9652  2528.7104
  2540.7104  2542.4557  2542.4557  2544.2009  2544.2009  2545.9462
  2526.9647  2528.7099  2528.7099  2530.4552  2530.4552  2532.2004
  2544.2004  2545.9456  2545.9456  2547.6909  2547.6909  2549.4361
  2526.9647  2528.7099  2528.7099  2530.4552  2530.4552  2532.2004
  2544.2004  2545.9456  2545.9456  2547.6909  2547.6909  2549.4361
  2530.4546  2532.1999  2532.1999  2533.9451  2533.9451  2535.6903
  2547.6903  2549.4356  2549.4356  2551.1808  2551.1808  2552.9261
  2530.4546  2532.1999  2532.1999  2533.9451  2533.9451  2535.6903
  2547.6903  2549.4356  2549.4356  2551.1808  2551.1808  2552.9261
  2533.9446  2535.6898  2535.6898  2537.4351  2537.4351  2539.1803
  2551.1803  2552.9255  2552.9255  2554.6708  2554.6708  2556.4160
  2533.9446  2535.6898  2535.6898  2537.4351  2537.4351  2539.1803
  2551.1803  2552.9255  2552.9255  2554.6708  2554.6708  2556.4160
  2537.4345  2539.1798  2539.1798  2540.9250  2540.9250  2542.6702
  2554.6702  2556.4155  2556.4155  2558.1607  2558.1607  2559.9060
  2524.9810  2526.7262  2526.7262  2528.4714  2528.4714  2530.2167
  2542.2167  2543.9619  2543.9619  2545.7072  2545.7072  2547.4524
  2528.4709  2530.2162  2530.2162  2531.9614  2531.9614  2533.7066
  2545.7066  2547.4519  2547.4519  2549.1971  2549.1971  2550.9424
  2528.4709  2530.2162  2530.2162  2531.9614  2531.9614  2533.7066
  2545.7066  2547.4519  2547.4519  2549.1971  2549.1971  2550.9424
  2531.9609  2533.7061  2533.7061  2535.4513  2535.4513  2537.1966
  2549.1966  2550.9418  2550.9418  2552.6871  2552.6871  2554.4323
  2531.9609  2533.7061  2533.7061  2535.4513  2535.4513  2537.1966
  2549.1966  2550.9418  2550.9418  2552.6871  2552.6871  2554.4323
  2535.4508  2537.1961  2537.1961  2538.9413  2538.9413  2540.6865
  2552.6865  2554.4318  2554.4318  2556.1770  2556.1770  2557.9223
  2535.4508  2537.1961  2537.1961  2538.9413  2538.9413  2540.6865
  2552.6865  2554.4318  2554.4318  2556.1770  2556.1770  2557.9223
  2538.9408  2540.6860  2540.6860  2542.4312  2542.4312  2544.1765
  2556.1765  2557.9217  2557.9217  2559.6670  2559.6670  2561.4122
  2538.9408  2540.6860  2540.6860  2542.4312  2542.4312  2544.1765
  2556.1765  2557.9217  2557.9217  2559.6670  2559.6670  2561.4122
  2542.4307  2544.1760  2544.1760  2545.9212  2545.9212  2547.6664
  2559.6664  2561.4117  2561.4117  2563.1569  2563.1569  2564.9022
  2524.9810  2526.7262  2526.7262  2528.4714  2528.4714  2530.2167
  2542.2167  2543.9619  2543.9619  2545.7072  2545.7072  2547.4524
  2528.4709  2530.2162  2530.2162  2531.9614  2531.9614  2533.7066
  2545.7066  2547.4519  2547.4519  2549.1971  2549.1971  2550.9424
  2528.4709  2530.2162  2530.2162  2531.9614  2531.9614  2533.7066
  2545.7066  2547.4519  2547.4519  2549.1971  2549.1971  2550.9424
  2531.9609  2533.7061  2533.7061  2535.4513  2535.4513  2537.1966
  2549.1966  2550.9418  2550.9418  2552.6871  2552.6871  2554.4323
  2531.9609  2533.7061  2533.7061  2535.4513  2535.4513  2537.1966
  2549.1966  2550.9418  2550.9418  2552.6871  2552.6871  2554.4323
  2535.4508  2537.1961  2537.1961  2538.9413  2538.9413  2540.6865
  2552.6865  2554.4318  2554.4318  2556.1770  2556.1770  2557.9223
  2535.4508  2537.1961  2537.1961  2538.9413  2538.9413  2540.6865
  2552.6865  2554.4318  2554.4318  2556.1770  2556.1770  2557.9223
  2538.9408  2540.6860  2540.6860  2542.4312  2542.4312  2544.1765
  2556.1765  2557.9217  2557.9217  2559.6670  2559.6670  2561.4122
  2538.9408  2540.6860  2540.6860  2542.4312  2542.4312  2544.1765
  2556.1765  2557.9217  2557.9217  2559.6670  2559.6670  2561.4122
  2542.4307  2544.1760  2544.1760  2545.9212  2545.9212  2547.6664
  2559.6664  2561.4117  2561.4117  2563.1569  2563.1569  2564.9022
  2529.9772  2531.7224  2531.7224  2533.4676  2533.4676  2535.2129
  2547.2129  2548.9581  2548.9581  2550.7034  2550.7034  2552.4486
  2533.4671  2535.2123  2535.2123  2536.9576  2536.9576  2538.7028
  2550.7028  2552.4481  2552.4481  2554.1933  2554.1933  2555.9385
  2533.4671  2535.2123  2535.2123  2536.9576  2536.9576  2538.7028
  2550.7028  2552.4481  2552.4481  2554.1933  2554.1933  2555.9385
  2536.9571  2538.7023  2538.7023  2540.4475  2540.4475  2542.1928
  2554.1928  2555.9380  2555.9380  2557.6833  2557.6833  2559.4285
  2536.9571  2538.7023  2538.7023  2540.4475  2540.4475  2542.1928
  2554.1928  2555.9380  2555.9380  2557.6833  2557.6833  2559.4285
  2540.4470  2542.1922  2542.1922  2543.9375  2543.9375  2545.6827
  2557.6827  2559.4280  2559.4280  2561.1732  2561.1732  2562.9184
  2540.4470  2542.1922  2542.1922  2543.9375  2543.9375  2545.6827
  2557.6827  2559.4280  2559.4280  2561.1732  2561.1732  2562.9184
  2543.9370  2545.6822  2545.6822  2547.4274  2547.4274  2549.1727
  2561.1727  2562.9179  2562.9179  2564.6632  2564.6632  2566.4084
  2543.9370  2545.6822  2545.6822  2547.4274  2547.4274  2549.1727
  2561.1727  2562.9179  2562.9179  2564.6632  2564.6632  2566.4084
  2547.4269  2549.1721  2549.1721  2550.9174  2550.9174  2552.6626
  2564.6626  2566.4079  2566.4079  2568.1531  2568.1531  2569.8983
  2529.9772  2531.7224  2531.7224  2533.4676  2533.4676  2535.2129
  2547.2129  2548.9581  2548.9581  2550.7034  2550.7034  2552.4486
  2533.4671  2535.2123  2535.2123  2536.9576  2536.9576  2538.7028
  2550.7028  2552.4481  2552.4481  2554.1933  2554.1933  2555.9385
  2533.4671  2535.2123  2535.2123  2536.9576  2536.9576  2538.7028
  2550.7028  2552.4481  2552.4481  2554.1933  2554.1933  2555.9385
  2536.9571  2538.7023  2538.7023  2540.4475  2540.4475  2542.1928
  2554.1928  2555.9380  2555.9380  2557.6833  2557.6833  2559.4285
  2536.9571  2538.7023  2538.7023  2540.4475  2540.4475  2542.1928
  2554.1928  2555.9380  2555.9380  2557.6833  2557.6833  2559.4285
  2540.4470  2542.1922  2542.1922  2543.9375  2543.9375  2545.6827
  2557.6827  2559.4280  2559.4280  2561.1732  2561.1732  2562.9184
  2540.4470  2542.1922  2542.1922  2543.9375  2543.9375  2545.6827
  2557.6827  2559.4280  2559.4280  2561.1732  2561.1732  2562.9184
  2543.9370  2545.6822  2545.6822  2547.4274  2547.4274  2549.1727
  2561.1727  2562.9179  2562.9179  2564.6632  2564.6632  2566.4084
  2543.9370  2545.6822  2545.6822  2547.4274  2547.4274  2549.1727
  2561.1727  2562.9179  2562.9179  2564.6632  2564.6632  2566.4084
  2547.4269  2549.1721  2549.1721  2550.9174  2550.9174  2552.6626
  2564.6626  2566.4079  2566.4079  2568.1531  2568.1531  2569.8983
  2534.9733  2536.7186  2536.7186  2538.4638  2538.4638  2540.2091
  2552.2091  2553.9543  2553.9543  2555.6996  2555.6996  2557.4448
  2538.4633  2540.2085  2540.2085  2541.9538  2541.9538  2543.6990
  2555.6990  2557.4443  2557.4443  2559.1895  2559.1895  2560.9347
  2538.4633  2540.2085  2540.2085  2541.9538  2541.9538  2543.6990
  2555.6990  2557.4443  2557.4443  2559.1895  2559.1895  2560.9347
  2541.9532  2543.6985  2543.6985  2545.4437  2545.4437  2547.1890
  2559.1890  2560.9342  2560.9342  2562.6795  2562.6795  2564.4247
  2541.9532  2543.6985  2543.6985  2545.4437  2545.4437  2547.1890
  2559.1890  2560.9342  2560.9342  2562.6795  2562.6795  2564.4247
  2545.4432  2547.1884  2547.1884  2548.9337  2548.9337  2550.6789
  2562.6789  2564.4242  2564.4242  2566.1694  2566.1694  2567.9146
  2545.4432  2547.1884  2547.1884  2548.9337  2548.9337  2550.6789
  2562.6789  2564.4242  2564.4242  2566.1694  2566.1694  2567.9146
  2548.9331  2550.6784  2550.6784  2552.4236  2552.4236  2554.1689
  2566.1689  2567.9141  2567.9141  2569.6594  2569.6594  2571.4046
  2548.9331  2550.6784  2550.6784  2552.4236  2552.4236  2554.1689
  2566.1689  2567.9141  2567.9141  2569.6594  2569.6594  2571.4046
  2552.4231  2554.1683  2554.1683  2555.9136  2555.9136  2557.6588
  2569.6588  2571.4041  2571.4041  2573.1493  2573.1493  2574.8945
 / 
