-- This reservoir simulation deck is made available under the Open Database
-- License: http://opendatacommons.org/licenses/odbl/1.0/. Any rights in
-- individual contents of the database are licensed under the Database Contents
-- License: http://opendatacommons.org/licenses/dbcl/1.0/

-- Copyright (C) 2024 Equinor


SPECGRID
 20 15 9 1 F / 

COORD
  2000.0000  2000.0000  2200.0000   1999.9302  1999.8953  2233.4834 
  2099.9848  2000.0000  2201.7452   2099.9150  1999.8953  2235.2287 
  2199.9695  2000.0000  2203.4905   2199.8997  1999.8953  2236.9739 
  2299.9543  2000.0000  2205.2357   2299.8845  1999.8953  2238.7191 
  2399.9391  2000.0000  2206.9810   2399.8693  1999.8953  2240.4644 
  2499.9238  2000.0000  2208.7262   2499.8540  1999.8953  2242.2096 
  2599.9086  2000.0000  2210.4714   2599.8388  1999.8953  2243.9549 
  2699.8934  2000.0000  2212.2167   2699.8236  1999.8953  2245.7001 
  2799.8782  2000.0000  2213.9619   2799.8083  1999.8953  2247.4453 
  2899.8629  2000.0000  2215.7072   2899.7931  1999.8953  2249.1906 
  2999.8477  2000.0000  2217.4524   2999.7779  1999.8953  2250.9358 
  3099.8325  2000.0000  2219.1976   3099.7627  1999.8953  2252.6811 
  3199.8172  2000.0000  2220.9429   3199.7474  1999.8953  2254.4263 
  3299.8020  2000.0000  2222.6881   3299.7322  1999.8953  2256.1715 
  3399.7868  2000.0000  2224.4334   3399.7170  1999.8953  2257.9168 
  3499.7715  2000.0000  2226.1786   3499.7017  1999.8953  2259.6620 
  3599.7563  2000.0000  2227.9239   3599.6865  1999.8953  2261.4073 
  3699.7411  2000.0000  2229.6691   3699.6713  1999.8953  2263.1525 
  3799.7259  2000.0000  2231.4143   3799.6560  1999.8953  2264.8977 
  3899.7106  2000.0000  2233.1596   3899.6408  1999.8953  2266.6430 
  3999.6954  2000.0000  2234.9048   3999.6256  1999.8953  2268.3882 
  2000.0000  2099.9657  2202.6177   1999.9302  2099.8610  2236.1011 
  2099.9848  2099.9657  2204.3629   2099.9150  2099.8610  2237.8464 
  2199.9695  2099.9657  2206.1082   2199.8997  2099.8610  2239.5916 
  2299.9543  2099.9657  2207.8534   2299.8845  2099.8610  2241.3368 
  2399.9391  2099.9657  2209.5987   2399.8693  2099.8610  2243.0821 
  2499.9238  2099.9657  2211.3439   2499.8540  2099.8610  2244.8273 
  2599.9086  2099.9657  2213.0891   2599.8388  2099.8610  2246.5726 
  2699.8934  2099.9657  2214.8344   2699.8236  2099.8610  2248.3178 
  2799.8782  2099.9657  2216.5796   2799.8083  2099.8610  2250.0630 
  2899.8629  2099.9657  2218.3249   2899.7931  2099.8610  2251.8083 
  2999.8477  2099.9657  2220.0701   2999.7779  2099.8610  2253.5535 
  3099.8325  2099.9657  2221.8153   3099.7627  2099.8610  2255.2988 
  3199.8172  2099.9657  2223.5606   3199.7474  2099.8610  2257.0440 
  3299.8020  2099.9657  2225.3058   3299.7322  2099.8610  2258.7892 
  3399.7868  2099.9657  2227.0511   3399.7170  2099.8610  2260.5345 
  3499.7715  2099.9657  2228.7963   3499.7017  2099.8610  2262.2797 
  3599.7563  2099.9657  2230.5415   3599.6865  2099.8610  2264.0250 
  3699.7411  2099.9657  2232.2868   3699.6713  2099.8610  2265.7702 
  3799.7259  2099.9657  2234.0320   3799.6560  2099.8610  2267.5154 
  3899.7106  2099.9657  2235.7773   3899.6408  2099.8610  2269.2607 
  3999.6954  2099.9657  2237.5225   3999.6256  2099.8610  2271.0059 
  2000.0000  2199.9315  2205.2354   1999.9302  2199.8268  2238.7188 
  2099.9848  2199.9315  2206.9806   2099.9150  2199.8268  2240.4640 
  2199.9695  2199.9315  2208.7259   2199.8997  2199.8268  2242.2093 
  2299.9543  2199.9315  2210.4711   2299.8845  2199.8268  2243.9545 
  2399.9391  2199.9315  2212.2164   2399.8693  2199.8268  2245.6998 
  2499.9238  2199.9315  2213.9616   2499.8540  2199.8268  2247.4450 
  2599.9086  2199.9315  2215.7068   2599.8388  2199.8268  2249.1903 
  2699.8934  2199.9315  2217.4521   2699.8236  2199.8268  2250.9355 
  2799.8782  2199.9315  2219.1973   2799.8083  2199.8268  2252.6807 
  2899.8629  2199.9315  2220.9426   2899.7931  2199.8268  2254.4260 
  2999.8477  2199.9315  2222.6878   2999.7779  2199.8268  2256.1712 
  3099.8325  2199.9315  2224.4330   3099.7627  2199.8268  2257.9165 
  3199.8172  2199.9315  2226.1783   3199.7474  2199.8268  2259.6617 
  3299.8020  2199.9315  2227.9235   3299.7322  2199.8268  2261.4069 
  3399.7868  2199.9315  2229.6688   3399.7170  2199.8268  2263.1522 
  3499.7715  2199.9315  2231.4140   3499.7017  2199.8268  2264.8974 
  3599.7563  2199.9315  2233.1592   3599.6865  2199.8268  2266.6427 
  3699.7411  2199.9315  2234.9045   3699.6713  2199.8268  2268.3879 
  3799.7259  2199.9315  2236.6497   3799.6560  2199.8268  2270.1331 
  3899.7106  2199.9315  2238.3950   3899.6408  2199.8268  2271.8784 
  3999.6954  2199.9315  2240.1402   3999.6256  2199.8268  2273.6236 
  2000.0000  2299.8972  2207.8531   1999.9302  2299.7925  2241.3365 
  2099.9848  2299.8972  2209.5983   2099.9150  2299.7925  2243.0817 
  2199.9695  2299.8972  2211.3436   2199.8997  2299.7925  2244.8270 
  2299.9543  2299.8972  2213.0888   2299.8845  2299.7925  2246.5722 
  2399.9391  2299.8972  2214.8340   2399.8693  2299.7925  2248.3175 
  2499.9238  2299.8972  2216.5793   2499.8540  2299.7925  2250.0627 
  2599.9086  2299.8972  2218.3245   2599.8388  2299.7925  2251.8079 
  2699.8934  2299.8972  2220.0698   2699.8236  2299.7925  2253.5532 
  2799.8782  2299.8972  2221.8150   2799.8083  2299.7925  2255.2984 
  2899.8629  2299.8972  2223.5603   2899.7931  2299.7925  2257.0437 
  2999.8477  2299.8972  2225.3055   2999.7779  2299.7925  2258.7889 
  3099.8325  2299.8972  2227.0507   3099.7627  2299.7925  2260.5341 
  3199.8172  2299.8972  2228.7960   3199.7474  2299.7925  2262.2794 
  3299.8020  2299.8972  2230.5412   3299.7322  2299.7925  2264.0246 
  3399.7868  2299.8972  2232.2865   3399.7170  2299.7925  2265.7699 
  3499.7715  2299.8972  2234.0317   3499.7017  2299.7925  2267.5151 
  3599.7563  2299.8972  2235.7769   3599.6865  2299.7925  2269.2604 
  3699.7411  2299.8972  2237.5222   3699.6713  2299.7925  2271.0056 
  3799.7259  2299.8972  2239.2674   3799.6560  2299.7925  2272.7508 
  3899.7106  2299.8972  2241.0127   3899.6408  2299.7925  2274.4961 
  3999.6954  2299.8972  2242.7579   3999.6256  2299.7925  2276.2413 
  2000.0000  2399.8629  2210.4708   1999.9302  2399.7582  2243.9542 
  2099.9848  2399.8629  2212.2160   2099.9150  2399.7582  2245.6994 
  2199.9695  2399.8629  2213.9613   2199.8997  2399.7582  2247.4447 
  2299.9543  2399.8629  2215.7065   2299.8845  2399.7582  2249.1899 
  2399.9391  2399.8629  2217.4517   2399.8693  2399.7582  2250.9352 
  2499.9238  2399.8629  2219.1970   2499.8540  2399.7582  2252.6804 
  2599.9086  2399.8629  2220.9422   2599.8388  2399.7582  2254.4256 
  2699.8934  2399.8629  2222.6875   2699.8236  2399.7582  2256.1709 
  2799.8782  2399.8629  2224.4327   2799.8083  2399.7582  2257.9161 
  2899.8629  2399.8629  2226.1779   2899.7931  2399.7582  2259.6614 
  2999.8477  2399.8629  2227.9232   2999.7779  2399.7582  2261.4066 
  3099.8325  2399.8629  2229.6684   3099.7627  2399.7582  2263.1518 
  3199.8172  2399.8629  2231.4137   3199.7474  2399.7582  2264.8971 
  3299.8020  2399.8629  2233.1589   3299.7322  2399.7582  2266.6423 
  3399.7868  2399.8629  2234.9041   3399.7170  2399.7582  2268.3876 
  3499.7715  2399.8629  2236.6494   3499.7017  2399.7582  2270.1328 
  3599.7563  2399.8629  2238.3946   3599.6865  2399.7582  2271.8780 
  3699.7411  2399.8629  2240.1399   3699.6713  2399.7582  2273.6233 
  3799.7259  2399.8629  2241.8851   3799.6560  2399.7582  2275.3685 
  3899.7106  2399.8629  2243.6304   3899.6408  2399.7582  2277.1138 
  3999.6954  2399.8629  2245.3756   3999.6256  2399.7582  2278.8590 
  2000.0000  2499.8287  2213.0885   1999.9302  2499.7240  2246.5719 
  2099.9848  2499.8287  2214.8337   2099.9150  2499.7240  2248.3171 
  2199.9695  2499.8287  2216.5790   2199.8997  2499.7240  2250.0624 
  2299.9543  2499.8287  2218.3242   2299.8845  2499.7240  2251.8076 
  2399.9391  2499.8287  2220.0694   2399.8693  2499.7240  2253.5529 
  2499.9238  2499.8287  2221.8147   2499.8540  2499.7240  2255.2981 
  2599.9086  2499.8287  2223.5599   2599.8388  2499.7240  2257.0433 
  2699.8934  2499.8287  2225.3052   2699.8236  2499.7240  2258.7886 
  2799.8782  2499.8287  2227.0504   2799.8083  2499.7240  2260.5338 
  2899.8629  2499.8287  2228.7956   2899.7931  2499.7240  2262.2791 
  2999.8477  2499.8287  2230.5409   2999.7779  2499.7240  2264.0243 
  3099.8325  2499.8287  2232.2861   3099.7627  2499.7240  2265.7695 
  3199.8172  2499.8287  2234.0314   3199.7474  2499.7240  2267.5148 
  3299.8020  2499.8287  2235.7766   3299.7322  2499.7240  2269.2600 
  3399.7868  2499.8287  2237.5218   3399.7170  2499.7240  2271.0053 
  3499.7715  2499.8287  2239.2671   3499.7017  2499.7240  2272.7505 
  3599.7563  2499.8287  2241.0123   3599.6865  2499.7240  2274.4957 
  3699.7411  2499.8287  2242.7576   3699.6713  2499.7240  2276.2410 
  3799.7259  2499.8287  2244.5028   3799.6560  2499.7240  2277.9862 
  3899.7106  2499.8287  2246.2480   3899.6408  2499.7240  2279.7315 
  3999.6954  2499.8287  2247.9933   3999.6256  2499.7240  2281.4767 
  2000.0000  2599.7944  2215.7062   1999.9302  2599.6897  2249.1896 
  2099.9848  2599.7944  2217.4514   2099.9150  2599.6897  2250.9348 
  2199.9695  2599.7944  2219.1967   2199.8997  2599.6897  2252.6801 
  2299.9543  2599.7944  2220.9419   2299.8845  2599.6897  2254.4253 
  2399.9391  2599.7944  2222.6871   2399.8693  2599.6897  2256.1705 
  2499.9238  2599.7944  2224.4324   2499.8540  2599.6897  2257.9158 
  2599.9086  2599.7944  2226.1776   2599.8388  2599.6897  2259.6610 
  2699.8934  2599.7944  2227.9229   2699.8236  2599.6897  2261.4063 
  2799.8782  2599.7944  2229.6681   2799.8083  2599.6897  2263.1515 
  2899.8629  2599.7944  2231.4133   2899.7931  2599.6897  2264.8968 
  2999.8477  2599.7944  2233.1586   2999.7779  2599.6897  2266.6420 
  3099.8325  2599.7944  2234.9038   3099.7627  2599.6897  2268.3872 
  3199.8172  2599.7944  2241.6491   3199.7474  2599.6897  2275.1325 
  3299.8020  2599.7944  2243.3943   3299.7322  2599.6897  2276.8777 
  3399.7868  2599.7944  2245.1395   3399.7170  2599.6897  2278.6230 
  3499.7715  2599.7944  2246.8848   3499.7017  2599.6897  2280.3682 
  3599.7563  2599.7944  2248.6300   3599.6865  2599.6897  2282.1134 
  3699.7411  2599.7944  2250.3753   3699.6713  2599.6897  2283.8587 
  3799.7259  2599.7944  2252.1205   3799.6560  2599.6897  2285.6039 
  3899.7106  2599.7944  2253.8657   3899.6408  2599.6897  2287.3492 
  3999.6954  2599.7944  2255.6110   3999.6256  2599.6897  2289.0944 
  2000.0000  2699.7601  2218.3239   1999.9302  2699.6554  2251.8073 
  2099.9848  2699.7601  2220.0691   2099.9150  2699.6554  2253.5525 
  2199.9695  2699.7601  2221.8143   2199.8997  2699.6554  2255.2978 
  2299.9543  2699.7601  2223.5596   2299.8845  2699.6554  2257.0430 
  2399.9391  2699.7601  2225.3048   2399.8693  2699.6554  2258.7882 
  2499.9238  2699.7601  2227.0501   2499.8540  2699.6554  2260.5335 
  2599.9086  2699.7601  2228.7953   2599.8388  2699.6554  2262.2787 
  2699.8934  2699.7601  2230.5405   2699.8236  2699.6554  2264.0240 
  2799.8782  2699.7601  2237.2858   2799.8083  2699.6554  2270.7692 
  2899.8629  2699.7601  2239.0310   2899.7931  2699.6554  2272.5144 
  2999.8477  2699.7601  2240.7763   2999.7779  2699.6554  2274.2597 
  3099.8325  2699.7601  2242.5215   3099.7627  2699.6554  2276.0049 
  3199.8172  2699.7601  2244.2668   3199.7474  2699.6554  2277.7502 
  3299.8020  2699.7601  2246.0120   3299.7322  2699.6554  2279.4954 
  3399.7868  2699.7601  2247.7572   3399.7170  2699.6554  2281.2407 
  3499.7715  2699.7601  2249.5025   3499.7017  2699.6554  2282.9859 
  3599.7563  2699.7601  2251.2477   3599.6865  2699.6554  2284.7311 
  3699.7411  2699.7601  2252.9930   3699.6713  2699.6554  2286.4764 
  3799.7259  2699.7601  2254.7382   3799.6560  2699.6554  2288.2216 
  3899.7106  2699.7601  2256.4834   3899.6408  2699.6554  2289.9669 
  3999.6954  2699.7601  2258.2287   3999.6256  2699.6554  2291.7121 
  2000.0000  2799.7259  2220.9416   1999.9302  2799.6212  2254.4250 
  2099.9848  2799.7259  2222.6868   2099.9150  2799.6212  2256.1702 
  2199.9695  2799.7259  2224.4320   2199.8997  2799.6212  2257.9155 
  2299.9543  2799.7259  2226.1773   2299.8845  2799.6212  2259.6607 
  2399.9391  2799.7259  2227.9225   2399.8693  2799.6212  2261.4059 
  2499.9238  2799.7259  2229.6678   2499.8540  2799.6212  2263.1512 
  2599.9086  2799.7259  2236.4130   2599.8388  2799.6212  2269.8964 
  2699.8934  2799.7259  2238.1582   2699.8236  2799.6212  2271.6417 
  2799.8782  2799.7259  2239.9035   2799.8083  2799.6212  2273.3869 
  2899.8629  2799.7259  2241.6487   2899.7931  2799.6212  2275.1321 
  2999.8477  2799.7259  2243.3940   2999.7779  2799.6212  2276.8774 
  3099.8325  2799.7259  2245.1392   3099.7627  2799.6212  2278.6226 
  3199.8172  2799.7259  2246.8844   3199.7474  2799.6212  2280.3679 
  3299.8020  2799.7259  2248.6297   3299.7322  2799.6212  2282.1131 
  3399.7868  2799.7259  2250.3749   3399.7170  2799.6212  2283.8583 
  3499.7715  2799.7259  2252.1202   3499.7017  2799.6212  2285.6036 
  3599.7563  2799.7259  2253.8654   3599.6865  2799.6212  2287.3488 
  3699.7411  2799.7259  2255.6106   3699.6713  2799.6212  2289.0941 
  3799.7259  2799.7259  2257.3559   3799.6560  2799.6212  2290.8393 
  3899.7106  2799.7259  2259.1011   3899.6408  2799.6212  2292.5845 
  3999.6954  2799.7259  2260.8464   3999.6256  2799.6212  2294.3298 
  2000.0000  2899.6916  2228.5593   1999.9302  2899.5869  2262.0427 
  2099.9848  2899.6916  2230.3045   2099.9150  2899.5869  2263.7879 
  2199.9695  2899.6916  2232.0497   2199.8997  2899.5869  2265.5332 
  2299.9543  2899.6916  2233.7950   2299.8845  2899.5869  2267.2784 
  2399.9391  2899.6916  2235.5402   2399.8693  2899.5869  2269.0236 
  2499.9238  2899.6916  2237.2855   2499.8540  2899.5869  2270.7689 
  2599.9086  2899.6916  2239.0307   2599.8388  2899.5869  2272.5141 
  2699.8934  2899.6916  2240.7759   2699.8236  2899.5869  2274.2594 
  2799.8782  2899.6916  2242.5212   2799.8083  2899.5869  2276.0046 
  2899.8629  2899.6916  2244.2664   2899.7931  2899.5869  2277.7498 
  2999.8477  2899.6916  2246.0117   2999.7779  2899.5869  2279.4951 
  3099.8325  2899.6916  2247.7569   3099.7627  2899.5869  2281.2403 
  3199.8172  2899.6916  2249.5021   3199.7474  2899.5869  2282.9856 
  3299.8020  2899.6916  2251.2474   3299.7322  2899.5869  2284.7308 
  3399.7868  2899.6916  2252.9926   3399.7170  2899.5869  2286.4760 
  3499.7715  2899.6916  2254.7379   3499.7017  2899.5869  2288.2213 
  3599.7563  2899.6916  2256.4831   3599.6865  2899.5869  2289.9665 
  3699.7411  2899.6916  2258.2283   3699.6713  2899.5869  2291.7118 
  3799.7259  2899.6916  2259.9736   3799.6560  2899.5869  2293.4570 
  3899.7106  2899.6916  2261.7188   3899.6408  2899.5869  2295.2022 
  3999.6954  2899.6916  2263.4641   3999.6256  2899.5869  2296.9475 
  2000.0000  2999.6573  2231.1769   1999.9302  2999.5526  2264.6604 
  2099.9848  2999.6573  2232.9222   2099.9150  2999.5526  2266.4056 
  2199.9695  2999.6573  2234.6674   2199.8997  2999.5526  2268.1508 
  2299.9543  2999.6573  2236.4127   2299.8845  2999.5526  2269.8961 
  2399.9391  2999.6573  2238.1579   2399.8693  2999.5526  2271.6413 
  2499.9238  2999.6573  2239.9032   2499.8540  2999.5526  2273.3866 
  2599.9086  2999.6573  2241.6484   2599.8388  2999.5526  2275.1318 
  2699.8934  2999.6573  2243.3936   2699.8236  2999.5526  2276.8771 
  2799.8782  2999.6573  2245.1389   2799.8083  2999.5526  2278.6223 
  2899.8629  2999.6573  2246.8841   2899.7931  2999.5526  2280.3675 
  2999.8477  2999.6573  2248.6294   2999.7779  2999.5526  2282.1128 
  3099.8325  2999.6573  2250.3746   3099.7627  2999.5526  2283.8580 
  3199.8172  2999.6573  2252.1198   3199.7474  2999.5526  2285.6033 
  3299.8020  2999.6573  2253.8651   3299.7322  2999.5526  2287.3485 
  3399.7868  2999.6573  2255.6103   3399.7170  2999.5526  2289.0937 
  3499.7715  2999.6573  2257.3556   3499.7017  2999.5526  2290.8390 
  3599.7563  2999.6573  2259.1008   3599.6865  2999.5526  2292.5842 
  3699.7411  2999.6573  2260.8460   3699.6713  2999.5526  2294.3295 
  3799.7259  2999.6573  2262.5913   3799.6560  2999.5526  2296.0747 
  3899.7106  2999.6573  2264.3365   3899.6408  2999.5526  2297.8199 
  3999.6954  2999.6573  2266.0818   3999.6256  2999.5526  2299.5652 
  2000.0000  3099.6231  2233.7946   1999.9302  3099.5183  2267.2781 
  2099.9848  3099.6231  2235.5399   2099.9150  3099.5183  2269.0233 
  2199.9695  3099.6231  2237.2851   2199.8997  3099.5183  2270.7685 
  2299.9543  3099.6231  2239.0304   2299.8845  3099.5183  2272.5138 
  2399.9391  3099.6231  2240.7756   2399.8693  3099.5183  2274.2590 
  2499.9238  3099.6231  2242.5208   2499.8540  3099.5183  2276.0043 
  2599.9086  3099.6231  2244.2661   2599.8388  3099.5183  2277.7495 
  2699.8934  3099.6231  2246.0113   2699.8236  3099.5183  2279.4947 
  2799.8782  3099.6231  2247.7566   2799.8083  3099.5183  2281.2400 
  2899.8629  3099.6231  2249.5018   2899.7931  3099.5183  2282.9852 
  2999.8477  3099.6231  2251.2470   2999.7779  3099.5183  2284.7305 
  3099.8325  3099.6231  2252.9923   3099.7627  3099.5183  2286.4757 
  3199.8172  3099.6231  2254.7375   3199.7474  3099.5183  2288.2209 
  3299.8020  3099.6231  2256.4828   3299.7322  3099.5183  2289.9662 
  3399.7868  3099.6231  2258.2280   3399.7170  3099.5183  2291.7114 
  3499.7715  3099.6231  2259.9733   3499.7017  3099.5183  2293.4567 
  3599.7563  3099.6231  2261.7185   3599.6865  3099.5183  2295.2019 
  3699.7411  3099.6231  2263.4637   3699.6713  3099.5183  2296.9472 
  3799.7259  3099.6231  2265.2090   3799.6560  3099.5183  2298.6924 
  3899.7106  3099.6231  2266.9542   3899.6408  3099.5183  2300.4376 
  3999.6954  3099.6231  2268.6995   3999.6256  3099.5183  2302.1829 
  2000.0000  3199.5888  2236.4123   1999.9302  3199.4841  2269.8958 
  2099.9848  3199.5888  2238.1576   2099.9150  3199.4841  2271.6410 
  2199.9695  3199.5888  2239.9028   2199.8997  3199.4841  2273.3862 
  2299.9543  3199.5888  2241.6481   2299.8845  3199.4841  2275.1315 
  2399.9391  3199.5888  2243.3933   2399.8693  3199.4841  2276.8767 
  2499.9238  3199.5888  2245.1385   2499.8540  3199.4841  2278.6220 
  2599.9086  3199.5888  2246.8838   2599.8388  3199.4841  2280.3672 
  2699.8934  3199.5888  2248.6290   2699.8236  3199.4841  2282.1124 
  2799.8782  3199.5888  2250.3743   2799.8083  3199.4841  2283.8577 
  2899.8629  3199.5888  2252.1195   2899.7931  3199.4841  2285.6029 
  2999.8477  3199.5888  2253.8647   2999.7779  3199.4841  2287.3482 
  3099.8325  3199.5888  2255.6100   3099.7627  3199.4841  2289.0934 
  3199.8172  3199.5888  2257.3552   3199.7474  3199.4841  2290.8386 
  3299.8020  3199.5888  2259.1005   3299.7322  3199.4841  2292.5839 
  3399.7868  3199.5888  2260.8457   3399.7170  3199.4841  2294.3291 
  3499.7715  3199.5888  2262.5909   3499.7017  3199.4841  2296.0744 
  3599.7563  3199.5888  2264.3362   3599.6865  3199.4841  2297.8196 
  3699.7411  3199.5888  2266.0814   3699.6713  3199.4841  2299.5648 
  3799.7259  3199.5888  2267.8267   3799.6560  3199.4841  2301.3101 
  3899.7106  3199.5888  2269.5719   3899.6408  3199.4841  2303.0553 
  3999.6954  3199.5888  2271.3172   3999.6256  3199.4841  2304.8006 
  2000.0000  3299.5545  2239.0300   1999.9302  3299.4498  2272.5135 
  2099.9848  3299.5545  2240.7753   2099.9150  3299.4498  2274.2587 
  2199.9695  3299.5545  2242.5205   2199.8997  3299.4498  2276.0039 
  2299.9543  3299.5545  2244.2658   2299.8845  3299.4498  2277.7492 
  2399.9391  3299.5545  2246.0110   2399.8693  3299.4498  2279.4944 
  2499.9238  3299.5545  2247.7562   2499.8540  3299.4498  2281.2397 
  2599.9086  3299.5545  2249.5015   2599.8388  3299.4498  2282.9849 
  2699.8934  3299.5545  2251.2467   2699.8236  3299.4498  2284.7301 
  2799.8782  3299.5545  2252.9920   2799.8083  3299.4498  2286.4754 
  2899.8629  3299.5545  2254.7372   2899.7931  3299.4498  2288.2206 
  2999.8477  3299.5545  2256.4824   2999.7779  3299.4498  2289.9659 
  3099.8325  3299.5545  2258.2277   3099.7627  3299.4498  2291.7111 
  3199.8172  3299.5545  2259.9729   3199.7474  3299.4498  2293.4563 
  3299.8020  3299.5545  2261.7182   3299.7322  3299.4498  2295.2016 
  3399.7868  3299.5545  2263.4634   3399.7170  3299.4498  2296.9468 
  3499.7715  3299.5545  2265.2086   3499.7017  3299.4498  2298.6921 
  3599.7563  3299.5545  2266.9539   3599.6865  3299.4498  2300.4373 
  3699.7411  3299.5545  2268.6991   3699.6713  3299.4498  2302.1825 
  3799.7259  3299.5545  2270.4444   3799.6560  3299.4498  2303.9278 
  3899.7106  3299.5545  2272.1896   3899.6408  3299.4498  2305.6730 
  3999.6954  3299.5545  2273.9348   3999.6256  3299.4498  2307.4183 
  2000.0000  3399.5203  2241.6477   1999.9302  3399.4155  2275.1311 
  2099.9848  3399.5203  2243.3930   2099.9150  3399.4155  2276.8764 
  2199.9695  3399.5203  2245.1382   2199.8997  3399.4155  2278.6216 
  2299.9543  3399.5203  2246.8834   2299.8845  3399.4155  2280.3669 
  2399.9391  3399.5203  2248.6287   2399.8693  3399.4155  2282.1121 
  2499.9238  3399.5203  2250.3739   2499.8540  3399.4155  2283.8573 
  2599.9086  3399.5203  2252.1192   2599.8388  3399.4155  2285.6026 
  2699.8934  3399.5203  2253.8644   2699.8236  3399.4155  2287.3478 
  2799.8782  3399.5203  2255.6097   2799.8083  3399.4155  2289.0931 
  2899.8629  3399.5203  2257.3549   2899.7931  3399.4155  2290.8383 
  2999.8477  3399.5203  2259.1001   2999.7779  3399.4155  2292.5836 
  3099.8325  3399.5203  2260.8454   3099.7627  3399.4155  2294.3288 
  3199.8172  3399.5203  2262.5906   3199.7474  3399.4155  2296.0740 
  3299.8020  3399.5203  2264.3359   3299.7322  3399.4155  2297.8193 
  3399.7868  3399.5203  2266.0811   3399.7170  3399.4155  2299.5645 
  3499.7715  3399.5203  2267.8263   3499.7017  3399.4155  2301.3098 
  3599.7563  3399.5203  2269.5716   3599.6865  3399.4155  2303.0550 
  3699.7411  3399.5203  2271.3168   3699.6713  3399.4155  2304.8002 
  3799.7259  3399.5203  2273.0621   3799.6560  3399.4155  2306.5455 
  3899.7106  3399.5203  2274.8073   3899.6408  3399.4155  2308.2907 
  3999.6954  3399.5203  2276.5525   3999.6256  3399.4155  2310.0360 
  2000.0000  3499.4860  2244.2654   1999.9302  3499.3813  2277.7488 
  2099.9848  3499.4860  2246.0107   2099.9150  3499.3813  2279.4941 
  2199.9695  3499.4860  2247.7559   2199.8997  3499.3813  2281.2393 
  2299.9543  3499.4860  2249.5011   2299.8845  3499.3813  2282.9846 
  2399.9391  3499.4860  2251.2464   2399.8693  3499.3813  2284.7298 
  2499.9238  3499.4860  2252.9916   2499.8540  3499.3813  2286.4750 
  2599.9086  3499.4860  2254.7369   2599.8388  3499.3813  2288.2203 
  2699.8934  3499.4860  2256.4821   2699.8236  3499.3813  2289.9655 
  2799.8782  3499.4860  2258.2273   2799.8083  3499.3813  2291.7108 
  2899.8629  3499.4860  2259.9726   2899.7931  3499.3813  2293.4560 
  2999.8477  3499.4860  2261.7178   2999.7779  3499.3813  2295.2012 
  3099.8325  3499.4860  2263.4631   3099.7627  3499.3813  2296.9465 
  3199.8172  3499.4860  2265.2083   3199.7474  3499.3813  2298.6917 
  3299.8020  3499.4860  2266.9536   3299.7322  3499.3813  2300.4370 
  3399.7868  3499.4860  2268.6988   3399.7170  3499.3813  2302.1822 
  3499.7715  3499.4860  2270.4440   3499.7017  3499.3813  2303.9275 
  3599.7563  3499.4860  2272.1893   3599.6865  3499.3813  2305.6727 
  3699.7411  3499.4860  2273.9345   3699.6713  3499.3813  2307.4179 
  3799.7259  3499.4860  2275.6798   3799.6560  3499.3813  2309.1632 
  3899.7106  3499.4860  2277.4250   3899.6408  3499.3813  2310.9084 
  3999.6954  3499.4860  2279.1702   3999.6256  3499.3813  2312.6537 
/ 

ZCORN
  2200.0000  2201.7452  2201.7452  2203.4905  2203.4905  2205.2357
  2205.2357  2206.9810  2206.9810  2208.7262  2208.7262  2210.4714
  2210.4714  2212.2167  2212.2167  2213.9619  2213.9619  2215.7072
  2215.7072  2217.4524  2217.4524  2219.1976  2219.1976  2220.9429
  2220.9429  2222.6881  2222.6881  2224.4334  2224.4334  2226.1786
  2226.1786  2227.9239  2227.9239  2229.6691  2229.6691  2231.4143
  2231.4143  2233.1596  2233.1596  2234.9048  2202.6177  2204.3629
  2204.3629  2206.1082  2206.1082  2207.8534  2207.8534  2209.5987
  2209.5987  2211.3439  2211.3439  2213.0891  2213.0891  2214.8344
  2214.8344  2216.5796  2216.5796  2218.3249  2218.3249  2220.0701
  2220.0701  2221.8153  2221.8153  2223.5606  2223.5606  2225.3058
  2225.3058  2227.0511  2227.0511  2228.7963  2228.7963  2230.5415
  2230.5415  2232.2868  2232.2868  2234.0320  2234.0320  2235.7773
  2235.7773  2237.5225  2202.6177  2204.3629  2204.3629  2206.1082
  2206.1082  2207.8534  2207.8534  2209.5987  2209.5987  2211.3439
  2211.3439  2213.0891  2213.0891  2214.8344  2214.8344  2216.5796
  2216.5796  2218.3249  2218.3249  2220.0701  2220.0701  2221.8153
  2221.8153  2223.5606  2223.5606  2225.3058  2225.3058  2227.0511
  2227.0511  2228.7963  2228.7963  2230.5415  2230.5415  2232.2868
  2232.2868  2234.0320  2234.0320  2235.7773  2235.7773  2237.5225
  2205.2354  2206.9806  2206.9806  2208.7259  2208.7259  2210.4711
  2210.4711  2212.2164  2212.2164  2213.9616  2213.9616  2215.7068
  2215.7068  2217.4521  2217.4521  2219.1973  2219.1973  2220.9426
  2220.9426  2222.6878  2222.6878  2224.4330  2224.4330  2226.1783
  2226.1783  2227.9235  2227.9235  2229.6688  2229.6688  2231.4140
  2231.4140  2233.1592  2233.1592  2234.9045  2234.9045  2236.6497
  2236.6497  2238.3950  2238.3950  2240.1402  2205.2354  2206.9806
  2206.9806  2208.7259  2208.7259  2210.4711  2210.4711  2212.2164
  2212.2164  2213.9616  2213.9616  2215.7068  2215.7068  2217.4521
  2217.4521  2219.1973  2219.1973  2220.9426  2220.9426  2222.6878
  2222.6878  2224.4330  2224.4330  2226.1783  2226.1783  2227.9235
  2227.9235  2229.6688  2229.6688  2231.4140  2231.4140  2233.1592
  2233.1592  2234.9045  2234.9045  2236.6497  2236.6497  2238.3950
  2238.3950  2240.1402  2207.8531  2209.5983  2209.5983  2211.3436
  2211.3436  2213.0888  2213.0888  2214.8340  2214.8340  2216.5793
  2216.5793  2218.3245  2218.3245  2220.0698  2220.0698  2221.8150
  2221.8150  2223.5603  2223.5603  2225.3055  2225.3055  2227.0507
  2227.0507  2228.7960  2228.7960  2230.5412  2230.5412  2232.2865
  2232.2865  2234.0317  2234.0317  2235.7769  2235.7769  2237.5222
  2237.5222  2239.2674  2239.2674  2241.0127  2241.0127  2242.7579
  2207.8531  2209.5983  2209.5983  2211.3436  2211.3436  2213.0888
  2213.0888  2214.8340  2214.8340  2216.5793  2216.5793  2218.3245
  2218.3245  2220.0698  2220.0698  2221.8150  2221.8150  2223.5603
  2223.5603  2225.3055  2225.3055  2227.0507  2227.0507  2228.7960
  2228.7960  2230.5412  2230.5412  2232.2865  2232.2865  2234.0317
  2234.0317  2235.7769  2235.7769  2237.5222  2237.5222  2239.2674
  2239.2674  2241.0127  2241.0127  2242.7579  2210.4708  2212.2160
  2212.2160  2213.9613  2213.9613  2215.7065  2215.7065  2217.4517
  2217.4517  2219.1970  2219.1970  2220.9422  2220.9422  2222.6875
  2222.6875  2224.4327  2224.4327  2226.1779  2226.1779  2227.9232
  2227.9232  2229.6684  2229.6684  2231.4137  2231.4137  2233.1589
  2233.1589  2234.9041  2234.9041  2236.6494  2236.6494  2238.3946
  2238.3946  2240.1399  2240.1399  2241.8851  2241.8851  2243.6304
  2243.6304  2245.3756  2210.4708  2212.2160  2212.2160  2213.9613
  2213.9613  2215.7065  2215.7065  2217.4517  2217.4517  2219.1970
  2219.1970  2220.9422  2220.9422  2222.6875  2222.6875  2224.4327
  2224.4327  2226.1779  2226.1779  2227.9232  2227.9232  2229.6684
  2229.6684  2231.4137  2231.4137  2233.1589  2233.1589  2234.9041
  2234.9041  2236.6494  2236.6494  2238.3946  2238.3946  2240.1399
  2240.1399  2241.8851  2241.8851  2243.6304  2243.6304  2245.3756
  2213.0885  2214.8337  2214.8337  2216.5790  2216.5790  2218.3242
  2218.3242  2220.0694  2220.0694  2221.8147  2221.8147  2223.5599
  2223.5599  2225.3052  2225.3052  2227.0504  2227.0504  2228.7956
  2228.7956  2230.5409  2230.5409  2232.2861  2232.2861  2234.0314
  2234.0314  2235.7766  2235.7766  2237.5218  2237.5218  2239.2671
  2239.2671  2241.0123  2241.0123  2242.7576  2242.7576  2244.5028
  2244.5028  2246.2480  2246.2480  2247.9933  2213.0885  2214.8337
  2214.8337  2216.5790  2216.5790  2218.3242  2218.3242  2220.0694
  2220.0694  2221.8147  2221.8147  2223.5599  2223.5599  2225.3052
  2225.3052  2227.0504  2227.0504  2228.7956  2228.7956  2230.5409
  2230.5409  2232.2861  2232.2861  2234.0314  2234.0314  2235.7766
  2235.7766  2237.5218  2237.5218  2239.2671  2239.2671  2241.0123
  2241.0123  2242.7576  2242.7576  2244.5028  2244.5028  2246.2480
  2246.2480  2247.9933  2215.7062  2217.4514  2217.4514  2219.1967
  2219.1967  2220.9419  2220.9419  2222.6871  2222.6871  2224.4324
  2224.4324  2226.1776  2226.1776  2227.9229  2227.9229  2229.6681
  2229.6681  2231.4133  2231.4133  2233.1586  2233.1586  2234.9038
  2234.9038  2236.6491  2236.6491  2238.3943  2238.3943  2240.1395
  2240.1395  2241.8848  2241.8848  2243.6300  2243.6300  2245.3753
  2245.3753  2247.1205  2247.1205  2248.8657  2248.8657  2250.6110
  2215.7062  2217.4514  2217.4514  2219.1967  2219.1967  2220.9419
  2220.9419  2222.6871  2222.6871  2224.4324  2224.4324  2226.1776
  2226.1776  2227.9229  2227.9229  2229.6681  2229.6681  2231.4133
  2231.4133  2233.1586  2233.1586  2234.9038  2234.9038  2236.6491
  2241.6491  2243.3943  2243.3943  2245.1395  2245.1395  2246.8848
  2246.8848  2248.6300  2248.6300  2250.3753  2250.3753  2252.1205
  2252.1205  2253.8657  2253.8657  2255.6110  2218.3239  2220.0691
  2220.0691  2221.8143  2221.8143  2223.5596  2223.5596  2225.3048
  2225.3048  2227.0501  2227.0501  2228.7953  2228.7953  2230.5405
  2230.5405  2232.2858  2232.2858  2234.0310  2234.0310  2235.7763
  2235.7763  2237.5215  2237.5215  2239.2668  2244.2668  2246.0120
  2246.0120  2247.7572  2247.7572  2249.5025  2249.5025  2251.2477
  2251.2477  2252.9930  2252.9930  2254.7382  2254.7382  2256.4834
  2256.4834  2258.2287  2218.3239  2220.0691  2220.0691  2221.8143
  2221.8143  2223.5596  2223.5596  2225.3048  2225.3048  2227.0501
  2227.0501  2228.7953  2228.7953  2230.5405  2230.5405  2232.2858