-- This reservoir simulation deck is made available under the Open Database
-- License: http://opendatacommons.org/licenses/odbl/1.0/. Any rights in
-- individual contents of the database are licensed under the Database Contents
-- License: http://opendatacommons.org/licenses/dbcl/1.0/

-- Copyright (C) 2025 Equinor


SPECGRID
 49 52 4 1 F / 

COORD
  2000.0000  2000.0000  3700.0000   1999.9250  2000.3000  3717.1555 
  2049.9924  2000.0000  3700.8726   2049.9173  2000.3000  3718.0281 
  2099.9848  2000.0000  3701.7452   2099.9097  2000.3000  3718.9007 
  2149.9772  2000.0000  3702.6179   2149.9021  2000.3000  3719.7733 
  2199.9695  2000.0000  3703.4905   2199.8945  2000.3000  3720.6460 
  2249.9619  2000.0000  3704.3631   2249.8869  2000.3000  3721.5186 
  2299.9543  2000.0000  3705.2357   2299.8793  2000.3000  3722.3912 
  2349.9467  2000.0000  3706.1083   2349.8716  2000.3000  3723.2638 
  2399.9391  2000.0000  3706.9810   2399.8640  2000.3000  3724.1364 
  2449.9315  2000.0000  3707.8536   2449.8564  2000.3000  3725.0091 
  2499.9238  2000.0000  3708.7262   2499.8488  2000.3000  3725.8817 
  2549.9162  2000.0000  3709.5988   2549.8412  2000.3000  3726.7543 
  2599.9086  2000.0000  3710.4714   2599.8336  2000.3000  3727.6269 
  2649.9010  2000.0000  3711.3441   2649.8260  2000.3000  3728.4995 
  2699.8934  2000.0000  3712.2167   2699.8183  2000.3000  3729.3722 
  2749.8858  2000.0000  3713.0893   2749.8107  2000.3000  3730.2448 
  2799.8782  2000.0000  3713.9619   2799.8031  2000.3000  3731.1174 
  2849.8705  2000.0000  3714.8345   2849.7955  2000.3000  3731.9900 
  2899.8629  2000.0000  3715.7072   2899.7879  2000.3000  3732.8626 
  2949.8553  2000.0000  3716.5798   2949.7803  2000.3000  3733.7353 
  2999.8477  2000.0000  3717.4524   2999.7726  2000.3000  3734.6079 
  3049.8401  2000.0000  3718.3250   3049.7650  2000.3000  3735.4805 
  3099.8325  2000.0000  3719.1976   3099.7574  2000.3000  3736.3531 
  3149.8248  2000.0000  3720.0703   3149.7498  2000.3000  3737.2257 
  3199.8172  2000.0000  3720.9429   3199.7422  2000.3000  3738.0984 
  3249.8096  2000.0000  3721.8155   3249.7346  2000.3000  3738.9710 
  3299.8020  2000.0000  3722.6881   3299.7270  2000.3000  3739.8436 
  3349.7944  2000.0000  3723.5607   3349.7193  2000.3000  3740.7162 
  3399.7868  2000.0000  3724.4334   3399.7117  2000.3000  3741.5889 
  3449.7792  2000.0000  3725.3060   3449.7041  2000.3000  3742.4615 
  3499.7715  2000.0000  3726.1786   3499.6965  2000.3000  3743.3341 
  3549.7639  2000.0000  3727.0512   3549.6889  2000.3000  3744.2067 
  3599.7563  2000.0000  3727.9239   3599.6813  2000.3000  3745.0793 
  3649.7487  2000.0000  3728.7965   3649.6737  2000.3000  3745.9520 
  3699.7411  2000.0000  3729.6691   3699.6660  2000.3000  3746.8246 
  3749.7335  2000.0000  3730.5417   3749.6584  2000.3000  3747.6972 
  3799.7259  2000.0000  3731.4143   3799.6508  2000.3000  3748.5698 
  3849.7182  2000.0000  3732.2870   3849.6432  2000.3000  3749.4424 
  3899.7106  2000.0000  3733.1596   3899.6356  2000.3000  3750.3151 
  3949.7030  2000.0000  3734.0322   3949.6280  2000.3000  3751.1877 
  3999.6954  2000.0000  3734.9048   3999.6203  2000.3000  3752.0603 
  4049.6878  2000.0000  3735.7774   4049.6127  2000.3000  3752.9329 
  4099.6802  2000.0000  3736.6501   4099.6051  2000.3000  3753.8055 
  4149.6725  2000.0000  3737.5227   4149.5975  2000.3000  3754.6782 
  4199.6649  2000.0000  3738.3953   4199.5899  2000.3000  3755.5508 
  4249.6573  2000.0000  3739.2679   4249.5823  2000.3000  3756.4234 
  4299.6497  2000.0000  3740.1405   4299.5747  2000.3000  3757.2960 
  4349.6421  2000.0000  3741.0132   4349.5670  2000.3000  3758.1686 
  4399.6345  2000.0000  3741.8858   4399.5594  2000.3000  3759.0413 
  4449.6269  2000.0000  3742.7584   4449.5518  2000.3000  3759.9139 
  2000.0000  2049.8782  3696.5122   1999.9250  2050.1782  3713.6677 
  2049.9924  2049.8782  3697.3848   2049.9173  2050.1782  3714.5403 
  2099.9848  2049.8782  3698.2574   2099.9097  2050.1782  3715.4129 
  2149.9772  2049.8782  3699.1300   2149.9021  2050.1782  3716.2855 
  2199.9695  2049.8782  3700.0027   2199.8945  2050.1782  3717.1581 
  2249.9619  2049.8782  3700.8753   2249.8869  2050.1782  3718.0308 
  2299.9543  2049.8782  3701.7479   2299.8793  2050.1782  3718.9034 
  2349.9467  2049.8782  3702.6205   2349.8716  2050.1782  3719.7760 
  2399.9391  2049.8782  3703.4931   2399.8640  2050.1782  3720.6486 
  2449.9315  2049.8782  3704.3658   2449.8564  2050.1782  3721.5212 
  2499.9238  2049.8782  3705.2384   2499.8488  2050.1782  3722.3939 
  2549.9162  2049.8782  3706.1110   2549.8412  2050.1782  3723.2665 
  2599.9086  2049.8782  3706.9836   2599.8336  2050.1782  3724.1391 
  2649.9010  2049.8782  3707.8562   2649.8260  2050.1782  3725.0117 
  2699.8934  2049.8782  3708.7289   2699.8183  2050.1782  3725.8843 
  2749.8858  2049.8782  3709.6015   2749.8107  2050.1782  3726.7570 
  2799.8782  2049.8782  3710.4741   2799.8031  2050.1782  3727.6296 
  2849.8705  2049.8782  3711.3467   2849.7955  2050.1782  3728.5022 
  2899.8629  2049.8782  3712.2193   2899.7879  2050.1782  3729.3748 
  2949.8553  2049.8782  3713.0920   2949.7803  2050.1782  3730.2474 
  2999.8477  2049.8782  3713.9646   2999.7726  2050.1782  3731.1201 
  3049.8401  2049.8782  3714.8372   3049.7650  2050.1782  3731.9927 
  3099.8325  2049.8782  3715.7098   3099.7574  2050.1782  3732.8653 
  3149.8248  2049.8782  3716.5824   3149.7498  2050.1782  3733.7379 
  3199.8172  2049.8782  3717.4551   3199.7422  2050.1782  3734.6105 
  3249.8096  2049.8782  3718.3277   3249.7346  2050.1782  3735.4832 
  3299.8020  2049.8782  3719.2003   3299.7270  2050.1782  3736.3558 
  3349.7944  2049.8782  3720.0729   3349.7193  2050.1782  3737.2284 
  3399.7868  2049.8782  3720.9455   3399.7117  2050.1782  3738.1010 
  3449.7792  2049.8782  3721.8182   3449.7041  2050.1782  3738.9736 
  3499.7715  2049.8782  3722.6908   3499.6965  2050.1782  3739.8463 
  3549.7639  2049.8782  3723.5634   3549.6889  2050.1782  3740.7189 
  3599.7563  2049.8782  3724.4360   3599.6813  2050.1782  3741.5915 
  3649.7487  2049.8782  3725.3086   3649.6737  2050.1782  3742.4641 
  3699.7411  2049.8782  3726.1813   3699.6660  2050.1782  3743.3367 
  3749.7335  2049.8782  3727.0539   3749.6584  2050.1782  3744.2094 
  3799.7259  2049.8782  3727.9265   3799.6508  2050.1782  3745.0820 
  3849.7182  2049.8782  3728.7991   3849.6432  2050.1782  3745.9546 
  3899.7106  2049.8782  3729.6717   3899.6356  2050.1782  3746.8272 
  3949.7030  2049.8782  3730.5444   3949.6280  2050.1782  3747.6999 
  3999.6954  2049.8782  3731.4170   3999.6203  2050.1782  3748.5725 
  4049.6878  2049.8782  3732.2896   4049.6127  2050.1782  3749.4451 
  4099.6802  2049.8782  3733.1622   4099.6051  2050.1782  3750.3177 
  4149.6725  2049.8782  3734.0349   4149.5975  2050.1782  3751.1903 
  4199.6649  2049.8782  3734.9075   4199.5899  2050.1782  3752.0630 
  4249.6573  2049.8782  3735.7801   4249.5823  2050.1782  3752.9356 
  4299.6497  2049.8782  3736.6527   4299.5747  2050.1782  3753.8082 
  4349.6421  2049.8782  3737.5253   4349.5670  2050.1782  3754.6808 
  4399.6345  2049.8782  3738.3980   4399.5594  2050.1782  3755.5534 
  4449.6269  2049.8782  3739.2706   4449.5518  2050.1782  3756.4261 
  2000.0000  2099.7564  3693.0244   1999.9250  2100.0564  3710.1798 
  2049.9924  2099.7564  3693.8970   2049.9173  2100.0564  3711.0525 
  2099.9848  2099.7564  3694.7696   2099.9097  2100.0564  3711.9251 
  2149.9772  2099.7564  3695.6422   2149.9021  2100.0564  3712.7977 
  2199.9695  2099.7564  3696.5148   2199.8945  2100.0564  3713.6703 
  2249.9619  2099.7564  3697.3875   2249.8869  2100.0564  3714.5429 
  2299.9543  2099.7564  3698.2601   2299.8793  2100.0564  3715.4156 
  2349.9467  2099.7564  3699.1327   2349.8716  2100.0564  3716.2882 
  2399.9391  2099.7564  3700.0053   2399.8640  2100.0564  3717.1608 
  2449.9315  2099.7564  3700.8779   2449.8564  2100.0564  3718.0334 
  2499.9238  2099.7564  3701.7506   2499.8488  2100.0564  3718.9060 
  2549.9162  2099.7564  3702.6232   2549.8412  2100.0564  3719.7787 
  2599.9086  2099.7564  3703.4958   2599.8336  2100.0564  3720.6513 
  2649.9010  2099.7564  3704.3684   2649.8260  2100.0564  3721.5239 
  2699.8934  2099.7564  3705.2410   2699.8183  2100.0564  3722.3965 
  2749.8858  2099.7564  3706.1137   2749.8107  2100.0564  3723.2691 
  2799.8782  2099.7564  3706.9863   2799.8031  2100.0564  3724.1418 
  2849.8705  2099.7564  3707.8589   2849.7955  2100.0564  3725.0144 
  2899.8629  2099.7564  3708.7315   2899.7879  2100.0564  3725.8870 
  2949.8553  2099.7564  3709.6041   2949.7803  2100.0564  3726.7596 
  2999.8477  2099.7564  3710.4768   2999.7726  2100.0564  3727.6322 
  3049.8401  2099.7564  3711.3494   3049.7650  2100.0564  3728.5049 
  3099.8325  2099.7564  3712.2220   3099.7574  2100.0564  3729.3775 
  3149.8248  2099.7564  3713.0946   3149.7498  2100.0564  3730.2501 
  3199.8172  2099.7564  3713.9672   3199.7422  2100.0564  3731.1227 
  3249.8096  2099.7564  3714.8399   3249.7346  2100.0564  3731.9953 
  3299.8020  2099.7564  3715.7125   3299.7270  2100.0564  3732.8680 
  3349.7944  2099.7564  3716.5851   3349.7193  2100.0564  3733.7406 
  3399.7868  2099.7564  3717.4577   3399.7117  2100.0564  3734.6132 
  3449.7792  2099.7564  3718.3303   3449.7041  2100.0564  3735.4858 
  3499.7715  2099.7564  3719.2030   3499.6965  2100.0564  3736.3584 
  3549.7639  2099.7564  3720.0756   3549.6889  2100.0564  3737.2311 
  3599.7563  2099.7564  3720.9482   3599.6813  2100.0564  3738.1037 
  3649.7487  2099.7564  3721.8208   3649.6737  2100.0564  3738.9763 
  3699.7411  2099.7564  3722.6934   3699.6660  2100.0564  3739.8489 
  3749.7335  2099.7564  3723.5661   3749.6584  2100.0564  3740.7215 
  3799.7259  2099.7564  3724.4387   3799.6508  2100.0564  3741.5942 
  3849.7182  2099.7564  3725.3113   3849.6432  2100.0564  3742.4668 
  3899.7106  2099.7564  3726.1839   3899.6356  2100.0564  3743.3394 
  3949.7030  2099.7564  3727.0565   3949.6280  2100.0564  3744.2120 
  3999.6954  2099.7564  3727.9292   3999.6203  2100.0564  3745.0846 
  4049.6878  2099.7564  3728.8018   4049.6127  2100.0564  3745.9573 
  4099.6802  2099.7564  3729.6744   4099.6051  2100.0564  3746.8299 
  4149.6725  2099.7564  3730.5470   4149.5975  2100.0564  3747.7025 
  4199.6649  2099.7564  3731.4196   4199.5899  2100.0564  3748.5751 
  4249.6573  2099.7564  3732.2923   4249.5823  2100.0564  3749.4477 
  4299.6497  2099.7564  3733.1649   4299.5747  2100.0564  3750.3204 
  4349.6421  2099.7564  3734.0375   4349.5670  2100.0564  3751.1930 
  4399.6345  2099.7564  3734.9101   4399.5594  2100.0564  3752.0656 
  4449.6269  2099.7564  3735.7827   4449.5518  2100.0564  3752.9382 
  2000.0000  2149.6346  3689.5365   1999.9250  2149.9346  3706.6920 
  2049.9924  2149.6346  3690.4091   2049.9173  2149.9346  3707.5646 
  2099.9848  2149.6346  3691.2818   2099.9097  2149.9346  3708.4373 
  2149.9772  2149.6346  3692.1544   2149.9021  2149.9346  3709.3099 
  2199.9695  2149.6346  3693.0270   2199.8945  2149.9346  3710.1825 
  2249.9619  2149.6346  3693.8996   2249.8869  2149.9346  3711.0551 
  2299.9543  2149.6346  3694.7723   2299.8793  2149.9346  3711.9277 
  2349.9467  2149.6346  3695.6449   2349.8716  2149.9346  3712.8004 
  2399.9391  2149.6346  3696.5175   2399.8640  2149.9346  3713.6730 
  2449.9315  2149.6346  3697.3901   2449.8564  2149.9346  3714.5456 
  2499.9238  2149.6346  3698.2627   2499.8488  2149.9346  3715.4182 
  2549.9162  2149.6346  3699.1354   2549.8412  2149.9346  3716.2908 
  2599.9086  2149.6346  3700.0080   2599.8336  2149.9346  3717.1635 
  2649.9010  2149.6346  3700.8806   2649.8260  2149.9346  3718.0361 
  2699.8934  2149.6346  3701.7532   2699.8183  2149.9346  3718.9087 
  2749.8858  2149.6346  3702.6258   2749.8107  2149.9346  3719.7813 
  2799.8782  2149.6346  3703.4985   2799.8031  2149.9346  3720.6539 
  2849.8705  2149.6346  3704.3711   2849.7955  2149.9346  3721.5266 
  2899.8629  2149.6346  3705.2437   2899.7879  2149.9346  3722.3992 
  2949.8553  2149.6346  3706.1163   2949.7803  2149.9346  3723.2718 
  2999.8477  2149.6346  3706.9889   2999.7726  2149.9346  3724.1444 
  3049.8401  2149.6346  3707.8616   3049.7650  2149.9346  3725.0170 
  3099.8325  2149.6346  3708.7342   3099.7574  2149.9346  3725.8897 
  3149.8248  2149.6346  3709.6068   3149.7498  2149.9346  3726.7623 
  3199.8172  2149.6346  3710.4794   3199.7422  2149.9346  3727.6349 
  3249.8096  2149.6346  3711.3520   3249.7346  2149.9346  3728.5075 
  3299.8020  2149.6346  3712.2247   3299.7270  2149.9346  3729.3801 
  3349.7944  2149.6346  3713.0973   3349.7193  2149.9346  3730.2528 
  3399.7868  2149.6346  3713.9699   3399.7117  2149.9346  3731.1254 
  3449.7792  2149.6346  3714.8425   3449.7041  2149.9346  3731.9980 
  3499.7715  2149.6346  3715.7151   3499.6965  2149.9346  3732.8706 
  3549.7639  2149.6346  3716.5878   3549.6889  2149.9346  3733.7432 
  3599.7563  2149.6346  3717.4604   3599.6813  2149.9346  3734.6159 
  3649.7487  2149.6346  3718.3330   3649.6737  2149.9346  3735.4885 
  3699.7411  2149.6346  3719.2056   3699.6660  2149.9346  3736.3611 
  3749.7335  2149.6346  3720.0782   3749.6584  2149.9346  3737.2337 
  3799.7259  2149.6346  3720.9509   3799.6508  2149.9346  3738.1063 
  3849.7182  2149.6346  3721.8235   3849.6432  2149.9346  3738.9790 
  3899.7106  2149.6346  3722.6961   3899.6356  2149.9346  3739.8516 
  3949.7030  2149.6346  3723.5687   3949.6280  2149.9346  3740.7242 
  3999.6954  2149.6346  3724.4413   3999.6203  2149.9346  3741.5968 
  4049.6878  2149.6346  3725.3140   4049.6127  2149.9346  3742.4694 
  4099.6802  2149.6346  3726.1866   4099.6051  2149.9346  3743.3421 
  4149.6725  2149.6346  3727.0592   4149.5975  2149.9346  3744.2147 
  4199.6649  2149.6346  3727.9318   4199.5899  2149.9346  3745.0873 
  4249.6573  2149.6346  3728.8044   4249.5823  2149.9346  3745.9599 
  4299.6497  2149.6346  3729.6771   4299.5747  2149.9346  3746.8325 
  4349.6421  2149.6346  3730.5497   4349.5670  2149.9346  3747.7052 
  4399.6345  2149.6346  3731.4223   4399.5594  2149.9346  3748.5778 
  4449.6269  2149.6346  3732.2949   4449.5518  2149.9346  3749.4504 
  2000.0000  2199.5128  3686.0487   1999.9250  2199.8128  3703.2042 
  2049.9924  2199.5128  3686.9213   2049.9173  2199.8128  3704.0768 
  2099.9848  2199.5128  3687.7939   2099.9097  2199.8128  3704.9494 
  2149.9772  2199.5128  3688.6666   2149.9021  2199.8128  3705.8220 
  2199.9695  2199.5128  3689.5392   2199.8945  2199.8128  3706.6947 
  2249.9619  2199.5128  3690.4118   2249.8869  2199.8128  3707.5673 
  2299.9543  2199.5128  3691.2844   2299.8793  2199.8128  3708.4399 
  2349.9467  2199.5128  3692.1570   2349.8716  2199.8128  3709.3125 
  2399.9391  2199.5128  3693.0297   2399.8640  2199.8128  3710.1851 
  2449.9315  2199.5128  3693.9023   2449.8564  2199.8128  3711.0578 
  2499.9238  2199.5128  3694.7749   2499.8488  2199.8128  3711.9304 
  2549.9162  2199.5128  3695.6475   2549.8412  2199.8128  3712.8030 
  2599.9086  2199.5128  3696.5201   2599.8336  2199.8128  3713.6756 
  2649.9010  2199.5128  3697.3928   2649.8260  2199.8128  3714.5483 
  2699.8934  2199.5128  3698.2654   2699.8183  2199.8128  3715.4209 
  2749.8858  2199.5128  3699.1380   2749.8107  2199.8128  3716.2935 
  2799.8782  2199.5128  3700.0106   2799.8031  2199.8128  3717.1661 
  2849.8705  2199.5128  3700.8833   2849.7955  2199.8128  3718.0387 
  2899.8629  2199.5128  3701.7559   2899.7879  2199.8128  3718.9114 
  2949.8553  2199.5128  3702.6285   2949.7803  2199.8128  3719.7840 
  2999.8477  2199.5128  3703.5011   2999.7726  2199.8128  3720.6566 
  3049.8401  2199.5128  3704.3737   3049.7650  2199.8128  3721.5292 
  3099.8325  2199.5128  3705.2464   3099.7574  2199.8128  3722.4018 
  3149.8248  2199.5128  3706.1190   3149.7498  2199.8128  3723.2745 
  3199.8172  2199.5128  3706.9916   3199.7422  2199.8128  3724.1471 
  3249.8096  2199.5128  3707.8642   3249.7346  2199.8128  3725.0197 
  3299.8020  2199.5128  3708.7368   3299.7270  2199.8128  3725.8923 
  3349.7944  2199.5128  3709.6095   3349.7193  2199.8128  3726.7649 
  3399.7868  2199.5128  3710.4821   3399.7117  2199.8128  3727.6376 
  3449.7792  2199.5128  3711.3547   3449.7041  2199.8128  3728.5102 
  3499.7715  2199.5128  3712.2273   3499.6965  2199.8128  3729.3828 
  3549.7639  2199.5128  3713.0999   3549.6889  2199.8128  3730.2554 
  3599.7563  2199.5128  3713.9726   3599.6813  2199.8128  3731.1280 
  3649.7487  2199.5128  3714.8452   3649.6737  2199.8128  3732.0007 
  3699.7411  2199.5128  3715.7178   3699.6660  2199.8128  3732.8733 
  3749.7335  2199.5128  3716.5904   3749.6584  2199.8128  3733.7459 
  3799.7259  2199.5128  3717.4630   3799.6508  2199.8128  3734.6185 
  3849.7182  2199.5128  3718.3357   3849.6432  2199.8128  3735.4911 
  3899.7106  2199.5128  3719.2083   3899.6356  2199.8128  3736.3638 
  3949.7030  2199.5128  3720.0809   3949.6280  2199.8128  3737.2364 
  3999.6954  2199.5128  3720.9535   3999.6203  2199.8128  3738.1090 
  4049.6878  2199.5128  3721.8261   4049.6127  2199.8128  3738.9816 
  4099.6802  2199.5128  3722.6988   4099.6051  2199.8128  3739.8542 
  4149.6725  2199.5128  3723.5714   4149.5975  2199.8128  3740.7269 
  4199.6649  2199.5128  3724.4440   4199.5899  2199.8128  3741.5995 
  4249.6573  2199.5128  3725.3166   4249.5823  2199.8128  3742.4721 
  4299.6497  2199.5128  3726.1892   4299.5747  2199.8128  3743.3447 
  4349.6421  2199.5128  3727.0619   4349.5670  2199.8128  3744.2173 
  4399.6345  2199.5128  3727.9345   4399.5594  2199.8128  3745.0900 
  4449.6269  2199.5128  3728.8071   4449.5518  2199.8128  3745.9626 
  2000.0000  2249.3910  3682.5609   1999.9250  2249.6910  3699.7164 
  2049.9924  2249.3910  3683.4335   2049.9173  2249.6910  3700.5890 
  2099.9848  2249.3910  3684.3061   2099.9097  2249.6910  3701.4616 
  2149.9772  2249.3910  3685.1787   2149.9021  2249.6910  3702.3342 
  2199.9695  2249.3910  3686.0514   2199.8945  2249.6910  3703.2068 
  2249.9619  2249.3910  3686.9240   2249.8869  2249.6910  3704.0795 
  2299.9543  2249.3910  3687.7966   2299.8793  2249.6910  3704.9521 
  2349.9467  2249.3910  3688.6692   2349.8716  2249.6910  3705.8247 
  2399.9391  2249.3910  3689.5418   2399.8640  2249.6910  3706.6973 
  2449.9315  2249.3910  3690.4145   2449.8564  2249.6910  3707.5699 
  2499.9238  2249.3910  3691.2871   2499.8488  2249.6910  3708.4426 
  2549.9162  2249.3910  3692.1597   2549.8412  2249.6910  3709.3152 
  2599.9086  2249.3910  3693.0323   2599.8336  2249.6910  3710.1878 
  2649.9010  2249.3910  3693.9049   2649.8260  2249.6910  3711.0604 
  2699.8934  2249.3910  3694.7776   2699.8183  2249.6910  3711.9330 
  2749.8858  2249.3910  3695.6502   2749.8107  2249.6910  3712.8057 
  2799.8782  2249.3910  3696.5228   2799.8031  2249.6910  3713.6783 
  2849.8705  2249.3910  3697.3954   2849.7955  2249.6910  3714.5509 
  2899.8629  2249.3910  3698.2680   2899.7879  2249.6910  3715.4235 
  2949.8553  2249.3910  3699.1407   2949.7803  2249.6910  3716.2961 
  2999.8477  2249.3910  3700.0133   2999.7726  2249.6910  3717.1688 
  3049.8401  2249.3910  3700.8859   3049.7650  2249.6910  3718.0414 
  3099.8325  2249.3910  3701.7585   3099.7574  2249.6910  3718.9140 
  3149.8248  2249.3910  3702.6311   3149.7498  2249.6910  3719.7866 
  3199.8172  2249.3910  3703.5038   3199.7422  2249.6910  3720.6593 
  3249.8096  2249.3910  3704.3764   3249.7346  2249.6910  3721.5319 
  3299.8020  2249.3910  3705.2490   3299.7270  2249.6910  3722.4045 
  3349.7944  2249.3910  3706.1216   3349.7193  2249.6910  3723.2771 
  3399.7868  2249.3910  3706.9943   3399.7117  2249.6910  3724.1497 
  3449.7792  2249.3910  3707.8669   3449.7041  2249.6910  3725.0224 
  3499.7715  2249.3910  3708.7395   3499.6965  2249.6910  3725.8950 
  3549.7639  2249.3910  3709.6121   3549.6889  2249.6910  3726.7676 
  3599.7563  2249.3910  3710.4847   3599.6813  2249.6910  3727.6402 
  3649.7487  2249.3910  3711.3574   3649.6737  2249.6910  3728.5128 
  3699.7411  2249.3910  3712.2300   3699.6660  2249.6910  3729.3855 
  3749.7335  2249.3910  3713.1026   3749.6584  2249.6910  3730.2581 
  3799.7259  2249.3910  3713.9752   3799.6508  2249.6910  3731.1307 
  3849.7182  2249.3910  3714.8478   3849.6432  2249.6910  3732.0033 
  3899.7106  2249.3910  3715.7205   3899.6356  2249.6910  3732.8759 
  3949.7030  2249.3910  3716.5931   3949.6280  2249.6910  3733.7486 
  3999.6954  2249.3910  3717.4657   3999.6203  2249.6910  3734.6212 
  4049.6878  2249.3910  3718.3383   4049.6127  2249.6910  3735.4938 
  4099.6802  2249.3910  3719.2109   4099.6051  2249.6910  3736.3664 
  4149.6725  2249.3910  3720.0836   4149.5975  2249.6910  3737.2390 
  4199.6649  2249.3910  3720.9562   4199.5899  2249.6910  3738.1117 
  4249.6573  2249.3910  3721.8288   4249.5823  2249.6910  3738.9843 
  4299.6497  2249.3910  3722.7014   4299.5747  2249.6910  3739.8569 
  4349.6421  2249.3910  3723.5740   4349.5670  2249.6910  3740.7295 
  4399.6345  2249.3910  3724.4467   4399.5594  2249.6910  3741.6021 
  4449.6269  2249.3910  3725.3193   4449.5518  2249.6910  3742.4748 
  2000.0000  2299.2692  3679.0731   1999.9250  2299.5692  3696.2285 
  2049.9924  2299.2692  3679.9457   2049.9173  2299.5692  3697.1012 
  2099.9848  2299.2692  3680.8183   2099.9097  2299.5692  3697.9738 
  2149.9772  2299.2692  3681.6909   2149.9021  2299.5692  3698.8464 
  2199.9695  2299.2692  3682.5635   2199.8945  2299.5692  3699.7190 
  2249.9619  2299.2692  3683.4362   2249.8869  2299.5692  3700.5916 
  2299.9543  2299.2692  3684.3088   2299.8793  2299.5692  3701.4643 
  2349.9467  2299.2692  3685.1814   2349.8716  2299.5692  3702.3369 
  2399.9391  2299.2692  3686.0540   2399.8640  2299.5692  3703.2095 
  2449.9315  2299.2692  3686.9266   2449.8564  2299.5692  3704.0821 
  2499.9238  2299.2692  3687.7993   2499.8488  2299.5692  3704.9547 
  2549.9162  2299.2692  3688.6719   2549.8412  2299.5692  3705.8274 
  2599.9086  2299.2692  3689.5445   2599.8336  2299.5692  3706.7000 
  2649.9010  2299.2692  3690.4171   2649.8260  2299.5692  3707.5726 
  2699.8934  2299.2692  3691.2897   2699.8183  2299.5692  3708.4452 
  2749.8858  2299.2692  3692.1624   2749.8107  2299.5692  3709.3178 
  2799.8782  2299.2692  3693.0350   2799.8031  2299.5692  3710.1905 
  2849.8705  2299.2692  3693.9076   2849.7955  2299.5692  3711.0631 
  2899.8629  2299.2692  3694.7802   2899.7879  2299.5692  3711.9357 
  2949.8553  2299.2692  3695.6528   2949.7803  2299.5692  3712.8083 
  2999.8477  2299.2692  3696.5255   2999.7726  2299.5692  3713.6809 
  3049.8401  2299.2692  3697.3981   3049.7650  2299.5692  3714.5536 
  3099.8325  2299.2692  3698.2707   3099.7574  2299.5692  3715.4262 
  3149.8248  2299.2692  3699.1433   3149.7498  2299.5692  3716.2988 
  3199.8172  2299.2692  3700.0159   3199.7422  2299.5692  3717.1714 
  3249.8096  2299.2692  3700.8886   3249.7346  2299.5692  3718.0440 
  3299.8020  2299.2692  3701.7612   3299.7270  2299.5692  3718.9167 
  3349.7944  2299.2692  3702.6338   3349.7193  2299.5692  3719.7893 
  3399.7868  2299.2692  3703.5064   3399.7117  2299.5692  3720.6619 
  3449.7792  2299.2692  3704.3790   3449.7041  2299.5692  3721.5345 
  3499.7715  2299.2692  3705.2517   3499.6965  2299.5692  3722.4071 
  3549.7639  2299.2692  3706.1243   3549.6889  2299.5692  3723.2798 
  3599.7563  2299.2692  3706.9969   3599.6813  2299.5692  3724.1524 
  3649.7487  2299.2692  3707.8695   3649.6737  2299.5692  3725.0250 
  3699.7411  2299.2692  3708.7421   3699.6660  2299.5692  3725.8976 
  3749.7335  2299.2692  3709.6148   3749.6584  2299.5692  3726.7703 
  3799.7259  2299.2692  3710.4874   3799.6508  2299.5692  3727.6429 
  3849.7182  2299.2692  3711.3600   3849.6432  2299.5692  3728.5155 
  3899.7106  2299.2692  3712.2326   3899.6356  2299.5692  3729.3881 
  3949.7030  2299.2692  3713.1053   3949.6280  2299.5692  3730.2607 
  3999.6954  2299.2692  3713.9779   3999.6203  2299.5692  3731.1334 
  4049.6878  2299.2692  3714.8505   4049.6127  2299.5692  3732.0060 
  4099.6802  2299.2692  3715.7231   4099.6051  2299.5692  3732.8786 
  4149.6725  2299.2692  3716.5957   4149.5975  2299.5692  3733.7512 
  4199.6649  2299.2692  3717.4684   4199.5899  2299.5692  3734.6238 
  4249.6573  2299.2692  3718.3410   4249.5823  2299.5692  3735.4965 
  4299.6497  2299.2692  3719.2136   4299.5747  2299.5692  3736.3691 
  4349.6421  2299.2692  3720.0862   4349.5670  2299.5692  3737.2417 
  4399.6345  2299.2692  3720.9588   4399.5594  2299.5692  3738.1143 
  4449.6269  2299.2692  3721.8315   4449.5518  2299.5692  3738.9869 
  2000.0000  2349.1474  3675.5852   1999.9250  2349.4474  3692.7407 
  2049.9924  2349.1474  3676.4579   2049.9173  2349.4474  3693.6133 
  2099.9848  2349.1474  3677.3305   2099.9097  2349.4474  3694.4860 
  2149.9772  2349.1474  3678.2031   2149.9021  2349.4474  3695.3586 
  2199.9695  2349.1474  3679.0757   2199.8945  2349.4474  3696.2312 
  2249.9619  2349.1474  3679.9483   2249.8869  2349.4474  3697.1038 
  2299.9543  2349.1474  3680.8210   2299.8793  2349.4474  3697.9764 
  2349.9467  2349.1474  3681.6936   2349.8716  2349.4474  3698.8491 
  2399.9391  2349.1474  3682.5662   2399.8640  2349.4474  3699.7217 
  2449.9315  2349.1474  3683.4388   2449.8564  2349.4474  3700.5943 
  2499.9238  2349.1474  3684.3114   2499.8488  2349.4474  3701.4669 
  2549.9162  2349.1474  3685.1841   2549.8412  2349.4474  3702.3395 
  2599.9086  2349.1474  3686.0567   2599.8336  2349.4474  3703.2122 
  2649.9010  2349.1474  3686.9293   2649.8260  2349.4474  3704.0848 
  2699.8934  2349.1474  3687.8019   2699.8183  2349.4474  3704.9574 
  2749.8858  2349.1474  3688.6745   2749.8107  2349.4474  3705.8300 
  2799.8782  2349.1474  3689.5472   2799.8031  2349.4474  3706.7026 
  2849.8705  2349.1474  3690.4198   2849.7955  2349.4474  3707.5753 
  2899.8629  2349.1474  3691.2924   2899.7879  2349.4474  3708.4479 
  2949.8553  2349.1474  3692.1650   2949.7803  2349.4474  3709.3205 
  2999.8477  2349.1474  3693.0376   2999.7726  2349.4474  3710.1931 
  3049.8401  2349.1474  3693.9103   3049.7650  2349.4474  3711.0657 
  3099.8325  2349.1474  3694.7829   3099.7574  2349.4474  3711.9384 
  3149.8248  2349.1474  3695.6555   3149.7498  2349.4474  3712.8110 
  3199.8172  2349.1474  3696.5281   3199.7422  2349.4474  3713.6836 
  3249.8096  2349.1474  3697.4007   3249.7346  2349.4474  3714.5562 
  3299.8020  2349.1474  3698.2734   3299.7270  2349.4474  3715.4288 
  3349.7944  2349.1474  3699.1460   3349.7193  2349.4474  3716.3015 
  3399.7868  2349.1474  3700.0186   3399.7117  2349.4474  3717.1741 
  3449.7792  2349.1474  3700.8912   3449.7041  2349.4474  3718.0467 
  3499.7715  2349.1474  3701.7638   3499.6965  2349.4474  3718.9193 
  3549.7639  2349.1474  3702.6365   3549.6889  2349.4474  3719.7919 
  3599.7563  2349.1474  3703.5091   3599.6813  2349.4474  3720.6646 
  3649.7487  2349.1474  3704.3817   3649.6737  2349.4474  3721.5372 
  3699.7411  2349.1474  3705.2543   3699.6660  2349.4474  3722.4098 
  3749.7335  2349.1474  3706.1269   3749.6584  2349.4474  3723.2824 
  3799.7259  2349.1474  3706.9996   3799.6508  2349.4474  3724.1550 
  3849.7182  2349.1474  3707.8722   3849.6432  2349.4474  3725.0277 
  3899.7106  2349.1474  3708.7448   3899.6356  2349.4474  3725.9003 
  3949.7030  2349.1474  3709.6174   3949.6280  2349.4474  3726.7729 
  3999.6954  2349.1474  3710.4900   3999.6203  2349.4474  3727.6455 
  4049.6878  2349.1474  3711.3627   4049.6127  2349.4474  3728.5181 
  4099.6802  2349.1474  3712.2353   4099.6051  2349.4474  3729.3908 
  4149.6725  2349.1474  3713.1079   4149.5975  2349.4474  3730.2634 
  4199.6649  2349.1474  3713.9805   4199.5899  2349.4474  3731.1360 
  4249.6573  2349.1474  3714.8531   4249.5823  2349.4474  3732.0086 
  4299.6497  2349.1474  3715.7258   4299.5747  2349.4474  3732.8813 
  4349.6421  2349.1474  3716.5984   4349.5670  2349.4474  3733.7539 
  4399.6345  2349.1474  3717.4710   4399.5594  2349.4474  3734.6265 
  4449.6269  2349.1474  3718.3436   4449.5518  2349.4474  3735.4991 
  2000.0000  2399.0256  3672.0974   1999.9250  2399.3256  3689.2529 
  2049.9924  2399.0256  3672.9700   2049.9173  2399.3256  3690.1255 
  2099.9848  2399.0256  3673.8427   2099.9097  2399.3256  3690.9981 
  2149.9772  2399.0256  3674.7153   2149.9021  2399.3256  3691.8708 
  2199.9695  2399.0256  3675.5879   2199.8945  2399.3256  3692.7434 
  2249.9619  2399.0256  3676.4605   2249.8869  2399.3256  3693.6160 
  2299.9543  2399.0256  3677.3331   2299.8793  2399.3256  3694.4886 
  2349.9467  2399.0256  3678.2058   2349.8716  2399.3256  3695.3612 
  2399.9391  2399.0256  3679.0784   2399.8640  2399.3256  3696.2339 
  2449.9315  2399.0256  3679.9510   2449.8564  2399.3256  3697.1065 
  2499.9238  2399.0256  3680.8236   2499.8488  2399.3256  3697.9791 
  2549.9162  2399.0256  3681.6962   2549.8412  2399.3256  3698.8517 
  2599.9086  2399.0256  3682.5689   2599.8336  2399.3256  3699.7243 
  2649.9010  2399.0256  3683.4415   2649.8260  2399.3256  3700.5970 
  2699.8934  2399.0256  3684.3141   2699.8183  2399.3256  3701.4696 
  2749.8858  2399.0256  3685.1867   2749.8107  2399.3256  3702.3422 
  2799.8782  2399.0256  3686.0593   2799.8031  2399.3256  3703.2148 
  2849.8705  2399.0256  3686.9320   2849.7955  2399.3256  3704.0874 
  2899.8629  2399.0256  3687.8046   2899.7879  2399.3256  3704.9601 
  2949.8553  2399.0256  3688.6772   2949.7803  2399.3256  3705.8327 
  2999.8477  2399.0256  3689.5498   2999.7726  2399.3256  3706.7053 
  3049.8401  2399.0256  3690.4224   3049.7650  2399.3256  3707.5779 
  3099.8325  2399.0256  3691.2951   3099.7574  2399.3256  3708.4505 
  3149.8248  2399.0256  3692.1677   3149.7498  2399.3256  3709.3232 
  3199.8172  2399.0256  3693.0403   3199.7422  2399.3256  3710.1958 
  3249.8096  2399.0256  3693.9129   3249.7346  2399.3256  3711.0684 
  3299.8020  2399.0256  3694.7855   3299.7270  2399.3256  3711.9410 
  3349.7944  2399.0256  3695.6582   3349.7193  2399.3256  3712.8136 
  3399.7868  2399.0256  3696.5308   3399.7117  2399.3256  3713.6863 