-- This reservoir simulation deck is made available under the Open Database
-- License: http://opendatacommons.org/licenses/odbl/1.0/. Any rights in
-- individual contents of the database are licensed under the Database Contents
-- License: http://opendatacommons.org/licenses/dbcl/1.0/

-- Copyright (C) 2018 Equinor

-- This is a test case for ICD related keyword WSEGSICD

SPECGRID
 20 8 15 1 F / 

COORD
  2000.0000  2000.0000  2000.0000   1999.9564  1999.9346  2053.9733 
  2099.9848  2000.0000  2001.7452   2099.9411  1999.9346  2055.7185 
  2199.9695  2000.0000  2003.4905   2199.9259  1999.9346  2057.4638 
  2299.9543  2000.0000  2005.2357   2299.9107  1999.9346  2059.2090 
  2399.9391  2000.0000  2006.9810   2399.8954  1999.9346  2060.9542 
  2499.9238  2000.0000  2008.7262   2499.8802  1999.9346  2062.6995 
  2599.9086  2000.0000  2010.4714   2599.8650  1999.9346  2064.4447 
  2699.8934  2000.0000  2012.2167   2699.8498  1999.9346  2066.1900 
  2799.8782  2000.0000  2013.9619   2799.8345  1999.9346  2067.9352 
  2899.8629  2000.0000  2015.7072   2899.8193  1999.9346  2069.6804 
  2999.8477  2000.0000  2017.4524   2999.8041  1999.9346  2071.4257 
  3099.8325  2000.0000  2019.1976   3099.7888  1999.9346  2073.1709 
  3199.8172  2000.0000  2020.9429   3199.7736  1999.9346  2074.9162 
  3299.8020  2000.0000  2022.6881   3299.7584  1999.9346  2076.6614 
  3399.7868  2000.0000  2024.4334   3399.7431  1999.9346  2078.4066 
  3499.7715  2000.0000  2026.1786   3499.7279  1999.9346  2080.1519 
  3599.7563  2000.0000  2027.9239   3599.7127  1999.9346  2081.8971 
  3699.7411  2000.0000  2029.6691   3699.6975  1999.9346  2083.6424 
  3799.7259  2000.0000  2031.4143   3799.6822  1999.9346  2085.3876 
  3899.7106  2000.0000  2033.1596   3899.6670  1999.9346  2087.1328 
  3999.6954  2000.0000  2034.9048   3999.6518  1999.9346  2088.8781 
  2000.0000  2099.9657  2002.6177   1999.9564  2099.9003  2056.5910 
  2099.9848  2099.9657  2004.3629   2099.9411  2099.9003  2058.3362 
  2199.9695  2099.9657  2006.1082   2199.9259  2099.9003  2060.0814 
  2299.9543  2099.9657  2007.8534   2299.9107  2099.9003  2061.8267 
  2399.9391  2099.9657  2009.5987   2399.8954  2099.9003  2063.5719 
  2499.9238  2099.9657  2011.3439   2499.8802  2099.9003  2065.3172 
  2599.9086  2099.9657  2013.0891   2599.8650  2099.9003  2067.0624 
  2699.8934  2099.9657  2014.8344   2699.8498  2099.9003  2068.8077 
  2799.8782  2099.9657  2016.5796   2799.8345  2099.9003  2070.5529 
  2899.8629  2099.9657  2018.3249   2899.8193  2099.9003  2072.2981 
  2999.8477  2099.9657  2020.0701   2999.8041  2099.9003  2074.0434 
  3099.8325  2099.9657  2021.8153   3099.7888  2099.9003  2075.7886 
  3199.8172  2099.9657  2023.5606   3199.7736  2099.9003  2077.5339 
  3299.8020  2099.9657  2025.3058   3299.7584  2099.9003  2079.2791 
  3399.7868  2099.9657  2027.0511   3399.7431  2099.9003  2081.0243 
  3499.7715  2099.9657  2028.7963   3499.7279  2099.9003  2082.7696 
  3599.7563  2099.9657  2030.5415   3599.7127  2099.9003  2084.5148 
  3699.7411  2099.9657  2032.2868   3699.6975  2099.9003  2086.2601 
  3799.7259  2099.9657  2034.0320   3799.6822  2099.9003  2088.0053 
  3899.7106  2099.9657  2035.7773   3899.6670  2099.9003  2089.7505 
  3999.6954  2099.9657  2037.5225   3999.6518  2099.9003  2091.4958 
  2000.0000  2199.9315  2005.2354   1999.9564  2199.8660  2059.2087 
  2099.9848  2199.9315  2006.9806   2099.9411  2199.8660  2060.9539 
  2199.9695  2199.9315  2008.7259   2199.9259  2199.8660  2062.6991 
  2299.9543  2199.9315  2010.4711   2299.9107  2199.8660  2064.4444 
  2399.9391  2199.9315  2012.2164   2399.8954  2199.8660  2066.1896 
  2499.9238  2199.9315  2013.9616   2499.8802  2199.8660  2067.9349 
  2599.9086  2199.9315  2015.7068   2599.8650  2199.8660  2069.6801 
  2699.8934  2199.9315  2017.4521   2699.8498  2199.8660  2071.4253 
  2799.8782  2199.9315  2019.1973   2799.8345  2199.8660  2073.1706 
  2899.8629  2199.9315  2020.9426   2899.8193  2199.8660  2074.9158 
  2999.8477  2199.9315  2022.6878   2999.8041  2199.8660  2076.6611 
  3099.8325  2199.9315  2024.4330   3099.7888  2199.8660  2078.4063 
  3199.8172  2199.9315  2026.1783   3199.7736  2199.8660  2080.1515 
  3299.8020  2199.9315  2027.9235   3299.7584  2199.8660  2081.8968 
  3399.7868  2199.9315  2029.6688   3399.7431  2199.8660  2083.6420 
  3499.7715  2199.9315  2031.4140   3499.7279  2199.8660  2085.3873 
  3599.7563  2199.9315  2033.1592   3599.7127  2199.8660  2087.1325 
  3699.7411  2199.9315  2034.9045   3699.6975  2199.8660  2088.8778 
  3799.7259  2199.9315  2036.6497   3799.6822  2199.8660  2090.6230 
  3899.7106  2199.9315  2038.3950   3899.6670  2199.8660  2092.3682 
  3999.6954  2199.9315  2040.1402   3999.6518  2199.8660  2094.1135 
  2000.0000  2299.8972  2007.8531   1999.9564  2299.8318  2061.8264 
  2099.9848  2299.8972  2009.5983   2099.9411  2299.8318  2063.5716 
  2199.9695  2299.8972  2011.3436   2199.9259  2299.8318  2065.3168 
  2299.9543  2299.8972  2013.0888   2299.9107  2299.8318  2067.0621 
  2399.9391  2299.8972  2014.8340   2399.8954  2299.8318  2068.8073 
  2499.9238  2299.8972  2016.5793   2499.8802  2299.8318  2070.5526 
  2599.9086  2299.8972  2018.3245   2599.8650  2299.8318  2072.2978 
  2699.8934  2299.8972  2020.0698   2699.8498  2299.8318  2074.0430 
  2799.8782  2299.8972  2021.8150   2799.8345  2299.8318  2075.7883 
  2899.8629  2299.8972  2023.5603   2899.8193  2299.8318  2077.5335 
  2999.8477  2299.8972  2025.3055   2999.8041  2299.8318  2079.2788 
  3099.8325  2299.8972  2027.0507   3099.7888  2299.8318  2081.0240 
  3199.8172  2299.8972  2028.7960   3199.7736  2299.8318  2082.7692 
  3299.8020  2299.8972  2030.5412   3299.7584  2299.8318  2084.5145 
  3399.7868  2299.8972  2032.2865   3399.7431  2299.8318  2086.2597 
  3499.7715  2299.8972  2034.0317   3499.7279  2299.8318  2088.0050 
  3599.7563  2299.8972  2035.7769   3599.7127  2299.8318  2089.7502 
  3699.7411  2299.8972  2037.5222   3699.6975  2299.8318  2091.4954 
  3799.7259  2299.8972  2039.2674   3799.6822  2299.8318  2093.2407 
  3899.7106  2299.8972  2041.0127   3899.6670  2299.8318  2094.9859 
  3999.6954  2299.8972  2042.7579   3999.6518  2299.8318  2096.7312 
  2000.0000  2399.8629  2010.4708   1999.9564  2399.7975  2064.4441 
  2099.9848  2399.8629  2012.2160   2099.9411  2399.7975  2066.1893 
  2199.9695  2399.8629  2013.9613   2199.9259  2399.7975  2067.9345 
  2299.9543  2399.8629  2015.7065   2299.9107  2399.7975  2069.6798 
  2399.9391  2399.8629  2017.4517   2399.8954  2399.7975  2071.4250 
  2499.9238  2399.8629  2019.1970   2499.8802  2399.7975  2073.1703 
  2599.9086  2399.8629  2020.9422   2599.8650  2399.7975  2074.9155 
  2699.8934  2399.8629  2022.6875   2699.8498  2399.7975  2076.6607 
  2799.8782  2399.8629  2024.4327   2799.8345  2399.7975  2078.4060 
  2899.8629  2399.8629  2026.1779   2899.8193  2399.7975  2080.1512 
  2999.8477  2399.8629  2027.9232   2999.8041  2399.7975  2081.8965 
  3099.8325  2399.8629  2029.6684   3099.7888  2399.7975  2083.6417 
  3199.8172  2399.8629  2031.4137   3199.7736  2399.7975  2085.3869 
  3299.8020  2399.8629  2033.1589   3299.7584  2399.7975  2087.1322 
  3399.7868  2399.8629  2034.9041   3399.7431  2399.7975  2088.8774 
  3499.7715  2399.8629  2036.6494   3499.7279  2399.7975  2090.6227 
  3599.7563  2399.8629  2038.3946   3599.7127  2399.7975  2092.3679 
  3699.7411  2399.8629  2040.1399   3699.6975  2399.7975  2094.1131 
  3799.7259  2399.8629  2041.8851   3799.6822  2399.7975  2095.8584 
  3899.7106  2399.8629  2043.6304   3899.6670  2399.7975  2097.6036 
  3999.6954  2399.8629  2045.3756   3999.6518  2399.7975  2099.3489 
  2000.0000  2499.8287  2013.0885   1999.9564  2499.7632  2067.0617 
  2099.9848  2499.8287  2014.8337   2099.9411  2499.7632  2068.8070 
  2199.9695  2499.8287  2016.5790   2199.9259  2499.7632  2070.5522 
  2299.9543  2499.8287  2018.3242   2299.9107  2499.7632  2072.2975 
  2399.9391  2499.8287  2020.0694   2399.8954  2499.7632  2074.0427 
  2499.9238  2499.8287  2021.8147   2499.8802  2499.7632  2075.7879 
  2599.9086  2499.8287  2023.5599   2599.8650  2499.7632  2077.5332 
  2699.8934  2499.8287  2025.3052   2699.8498  2499.7632  2079.2784 
  2799.8782  2499.8287  2027.0504   2799.8345  2499.7632  2081.0237 
  2899.8629  2499.8287  2028.7956   2899.8193  2499.7632  2082.7689 
  2999.8477  2499.8287  2030.5409   2999.8041  2499.7632  2084.5142 
  3099.8325  2499.8287  2032.2861   3099.7888  2499.7632  2086.2594 
  3199.8172  2499.8287  2034.0314   3199.7736  2499.7632  2088.0046 
  3299.8020  2499.8287  2035.7766   3299.7584  2499.7632  2089.7499 
  3399.7868  2499.8287  2037.5218   3399.7431  2499.7632  2091.4951 
  3499.7715  2499.8287  2039.2671   3499.7279  2499.7632  2093.2404 
  3599.7563  2499.8287  2041.0123   3599.7127  2499.7632  2094.9856 
  3699.7411  2499.8287  2042.7576   3699.6975  2499.7632  2096.7308 
  3799.7259  2499.8287  2044.5028   3799.6822  2499.7632  2098.4761 
  3899.7106  2499.8287  2046.2480   3899.6670  2499.7632  2100.2213 
  3999.6954  2499.8287  2047.9933   3999.6518  2499.7632  2101.9666 
  2000.0000  2599.7944  2015.7062   1999.9564  2599.7290  2069.6794 
  2099.9848  2599.7944  2017.4514   2099.9411  2599.7290  2071.4247 
  2199.9695  2599.7944  2019.1967   2199.9259  2599.7290  2073.1699 
  2299.9543  2599.7944  2020.9419   2299.9107  2599.7290  2074.9152 
  2399.9391  2599.7944  2022.6871   2399.8954  2599.7290  2076.6604 
  2499.9238  2599.7944  2024.4324   2499.8802  2599.7290  2078.4056 
  2599.9086  2599.7944  2026.1776   2599.8650  2599.7290  2080.1509 
  2699.8934  2599.7944  2027.9229   2699.8498  2599.7290  2081.8961 
  2799.8782  2599.7944  2029.6681   2799.8345  2599.7290  2083.6414 
  2899.8629  2599.7944  2031.4133   2899.8193  2599.7290  2085.3866 
  2999.8477  2599.7944  2033.1586   2999.8041  2599.7290  2087.1318 
  3099.8325  2599.7944  2034.9038   3099.7888  2599.7290  2088.8771 
  3199.8172  2599.7944  2036.6491   3199.7736  2599.7290  2090.6223 
  3299.8020  2599.7944  2038.3943   3299.7584  2599.7290  2092.3676 
  3399.7868  2599.7944  2040.1395   3399.7431  2599.7290  2094.1128 
  3499.7715  2599.7944  2041.8848   3499.7279  2599.7290  2095.8580 
  3599.7563  2599.7944  2043.6300   3599.7127  2599.7290  2097.6033 
  3699.7411  2599.7944  2045.3753   3699.6975  2599.7290  2099.3485 
  3799.7259  2599.7944  2047.1205   3799.6822  2599.7290  2101.0938 
  3899.7106  2599.7944  2048.8657   3899.6670  2599.7290  2102.8390 
  3999.6954  2599.7944  2050.6110   3999.6518  2599.7290  2104.5843 
  2000.0000  2699.7601  2018.3239   1999.9564  2699.6947  2072.2971 
  2099.9848  2699.7601  2020.0691   2099.9411  2699.6947  2074.0424 
  2199.9695  2699.7601  2021.8143   2199.9259  2699.6947  2075.7876 
  2299.9543  2699.7601  2023.5596   2299.9107  2699.6947  2077.5329 
  2399.9391  2699.7601  2025.3048   2399.8954  2699.6947  2079.2781 
  2499.9238  2699.7601  2027.0501   2499.8802  2699.6947  2081.0233 
  2599.9086  2699.7601  2028.7953   2599.8650  2699.6947  2082.7686 
  2699.8934  2699.7601  2030.5405   2699.8498  2699.6947  2084.5138 
  2799.8782  2699.7601  2032.2858   2799.8345  2699.6947  2086.2591 
  2899.8629  2699.7601  2034.0310   2899.8193  2699.6947  2088.0043 
  2999.8477  2699.7601  2035.7763   2999.8041  2699.6947  2089.7495 
  3099.8325  2699.7601  2037.5215   3099.7888  2699.6947  2091.4948 
  3199.8172  2699.7601  2039.2668   3199.7736  2699.6947  2093.2400 
  3299.8020  2699.7601  2041.0120   3299.7584  2699.6947  2094.9853 
  3399.7868  2699.7601  2042.7572   3399.7431  2699.6947  2096.7305 
  3499.7715  2699.7601  2044.5025   3499.7279  2699.6947  2098.4757 
  3599.7563  2699.7601  2046.2477   3599.7127  2699.6947  2100.2210 
  3699.7411  2699.7601  2047.9930   3699.6975  2699.6947  2101.9662 
  3799.7259  2699.7601  2049.7382   3799.6822  2699.6947  2103.7115 
  3899.7106  2699.7601  2051.4834   3899.6670  2699.6947  2105.4567 
  3999.6954  2699.7601  2053.2287   3999.6518  2699.6947  2107.2019 
  2000.0000  2799.7259  2020.9416   1999.9564  2799.6604  2074.9148 
  2099.9848  2799.7259  2022.6868   2099.9411  2799.6604  2076.6601 
  2199.9695  2799.7259  2024.4320   2199.9259  2799.6604  2078.4053 
  2299.9543  2799.7259  2026.1773   2299.9107  2799.6604  2080.1506 
  2399.9391  2799.7259  2027.9225   2399.8954  2799.6604  2081.8958 
  2499.9238  2799.7259  2029.6678   2499.8802  2799.6604  2083.6410 
  2599.9086  2799.7259  2031.4130   2599.8650  2799.6604  2085.3863 
  2699.8934  2799.7259  2033.1582   2699.8498  2799.6604  2087.1315 
  2799.8782  2799.7259  2034.9035   2799.8345  2799.6604  2088.8768 
  2899.8629  2799.7259  2036.6487   2899.8193  2799.6604  2090.6220 
  2999.8477  2799.7259  2038.3940   2999.8041  2799.6604  2092.3672 
  3099.8325  2799.7259  2040.1392   3099.7888  2799.6604  2094.1125 
  3199.8172  2799.7259  2041.8844   3199.7736  2799.6604  2095.8577 
  3299.8020  2799.7259  2043.6297   3299.7584  2799.6604  2097.6030 
  3399.7868  2799.7259  2045.3749   3399.7431  2799.6604  2099.3482 
  3499.7715  2799.7259  2047.1202   3499.7279  2799.6604  2101.0934 
  3599.7563  2799.7259  2048.8654   3599.7127  2799.6604  2102.8387 
  3699.7411  2799.7259  2050.6106   3699.6975  2799.6604  2104.5839 
  3799.7259  2799.7259  2052.3559   3799.6822  2799.6604  2106.3292 
  3899.7106  2799.7259  2054.1011   3899.6670  2799.6604  2108.0744 
  3999.6954  2799.7259  2055.8464   3999.6518  2799.6604  2109.8196 
/ 

ZCORN
  2000.0000  2001.7452  2001.7452  2003.4905  2003.4905  2005.2357
  2005.2357  2006.9810  2006.9810  2008.7262  2008.7262  2010.4714
  2010.4714  2012.2167  2012.2167  2013.9619  2013.9619  2015.7072
  2015.7072  2017.4524  2017.4524  2019.1976  2019.1976  2020.9429
  2020.9429  2022.6881  2022.6881  2024.4334  2024.4334  2026.1786
  2026.1786  2027.9239  2027.9239  2029.6691  2029.6691  2031.4143
  2031.4143  2033.1596  2033.1596  2034.9048  2002.6177  2004.3629
  2004.3629  2006.1082  2006.1082  2007.8534  2007.8534  2009.5987
  2009.5987  2011.3439  2011.3439  2013.0891  2013.0891  2014.8344
  2014.8344  2016.5796  2016.5796  2018.3249  2018.3249  2020.0701
  2020.0701  2021.8153  2021.8153  2023.5606  2023.5606  2025.3058
  2025.3058  2027.0511  2027.0511  2028.7963  2028.7963  2030.5415
  2030.5415  2032.2868  2032.2868  2034.0320  2034.0320  2035.7773
  2035.7773  2037.5225  2002.6177  2004.3629  2004.3629  2006.1082
  2006.1082  2007.8534  2007.8534  2009.5987  2009.5987  2011.3439
  2011.3439  2013.0891  2013.0891  2014.8344  2014.8344  2016.5796
  2016.5796  2018.3249  2018.3249  2020.0701  2020.0701  2021.8153
  2021.8153  2023.5606  2023.5606  2025.3058  2025.3058  2027.0511
  2027.0511  2028.7963  2028.7963  2030.5415  2030.5415  2032.2868
  2032.2868  2034.0320  2034.0320  2035.7773  2035.7773  2037.5225
  2005.2354  2006.9806  2006.9806  2008.7259  2008.7259  2010.4711
  2010.4711  2012.2164  2012.2164  2013.9616  2013.9616  2015.7068
  2015.7068  2017.4521  2017.4521  2019.1973  2019.1973  2020.9426
  2020.9426  2022.6878  2022.6878  2024.4330  2024.4330  2026.1783
  2026.1783  2027.9235  2027.9235  2029.6688  2029.6688  2031.4140
  2031.4140  2033.1592  2033.1592  2034.9045  2034.9045  2036.6497
  2036.6497  2038.3950  2038.3950  2040.1402  2005.2354  2006.9806
  2006.9806  2008.7259  2008.7259  2010.4711  2010.4711  2012.2164
  2012.2164  2013.9616  2013.9616  2015.7068  2015.7068  2017.4521
  2017.4521  2019.1973  2019.1973  2020.9426  2020.9426  2022.6878
  2022.6878  2024.4330  2024.4330  2026.1783  2026.1783  2027.9235
  2027.9235  2029.6688  2029.6688  2031.4140  2031.4140  2033.1592
  2033.1592  2034.9045  2034.9045  2036.6497  2036.6497  2038.3950
  2038.3950  2040.1402  2007.8531  2009.5983  2009.5983  2011.3436
  2011.3436  2013.0888  2013.0888  2014.8340  2014.8340  2016.5793
  2016.5793  2018.3245  2018.3245  2020.0698  2020.0698  2021.8150
  2021.8150  2023.5603  2023.5603  2025.3055  2025.3055  2027.0507
  2027.0507  2028.7960  2028.7960  2030.5412  2030.5412  2032.2865
  2032.2865  2034.0317  2034.0317  2035.7769  2035.7769  2037.5222
  2037.5222  2039.2674  2039.2674  2041.0127  2041.0127  2042.7579
  2007.8531  2009.5983  2009.5983  2011.3436  2011.3436  2013.0888
  2013.0888  2014.8340  2014.8340  2016.5793  2016.5793  2018.3245
  2018.3245  2020.0698  2020.0698  2021.8150  2021.8150  2023.5603
  2023.5603  2025.3055  2025.3055  2027.0507  2027.0507  2028.7960
  2028.7960  2030.5412  2030.5412  2032.2865  2032.2865  2034.0317
  2034.0317  2035.7769  2035.7769  2037.5222  2037.5222  2039.2674
  2039.2674  2041.0127  2041.0127  2042.7579  2010.4708  2012.2160
  2012.2160  2013.9613  2013.9613  2015.7065  2015.7065  2017.4517
  2017.4517  2019.1970  2019.1970  2020.9422  2020.9422  2022.6875
  2022.6875  2024.4327  2024.4327  2026.1779  2026.1779  2027.9232
  2027.9232  2029.6684  2029.6684  2031.4137  2031.4137  2033.1589
  2033.1589  2034.9041  2034.9041  2036.6494  2036.6494  2038.3946
  2038.3946  2040.1399  2040.1399  2041.8851  2041.8851  2043.6304
  2043.6304  2045.3756  2010.4708  2012.2160  2012.2160  2013.9613
  2013.9613  2015.7065  2015.7065  2017.4517  2017.4517  2019.1970
  2019.1970  2020.9422  2020.9422  2022.6875  2022.6875  2024.4327
  2024.4327  2026.1779  2026.1779  2027.9232  2027.9232  2029.6684
  2029.6684  2031.4137  2031.4137  2033.1589  2033.1589  2034.9041
  2034.9041  2036.6494  2036.6494  2038.3946  2038.3946  2040.1399
  2040.1399  2041.8851  2041.8851  2043.6304  2043.6304  2045.3756
  2013.0885  2014.8337  2014.8337  2016.5790  2016.5790  2018.3242
  2018.3242  2020.0694  2020.0694  2021.8147  2021.8147  2023.5599
  2023.5599  2025.3052  2025.3052  2027.0504  2027.0504  2028.7956
  2028.7956  2030.5409  2030.5409  2032.2861  2032.2861  2034.0314
  2034.0314  2035.7766  2035.7766  2037.5218  2037.5218  2039.2671
  2039.2671  2041.0123  2041.0123  2042.7576  2042.7576  2044.5028
  2044.5028  2046.2480  2046.2480  2047.9933  2013.0885  2014.8337
  2014.8337  2016.5790  2016.5790  2018.3242  2018.3242  2020.0694
  2020.0694  2021.8147  2021.8147  2023.5599  2023.5599  2025.3052
  2025.3052  2027.0504  2027.0504  2028.7956  2028.7956  2030.5409
  2030.5409  2032.2861  2032.2861  2034.0314  2034.0314  2035.7766
  2035.7766  2037.5218  2037.5218  2039.2671  2039.2671  2041.0123
  2041.0123  2042.7576  2042.7576  2044.5028  2044.5028  2046.2480
  2046.2480  2047.9933  2015.7062  2017.4514  2017.4514  2019.1967
  2019.1967  2020.9419  2020.9419  2022.6871  2022.6871  2024.4324
  2024.4324  2026.1776  2026.1776  2027.9229  2027.9229  2029.6681
  2029.6681  2031.4133  2031.4133  2033.1586  2033.1586  2034.9038
  2034.9038  2036.6491  2036.6491  2038.3943  2038.3943  2040.1395
  2040.1395  2041.8848  2041.8848  2043.6300  2043.6300  2045.3753
  2045.3753  2047.1205  2047.1205  2048.8657  2048.8657  2050.6110
  2015.7062  2017.4514  2017.4514  2019.1967  2019.1967  2020.9419
  2020.9419  2022.6871  2022.6871  2024.4324  2024.4324  2026.1776
  2026.1776  2027.9229  2027.9229  2029.6681  2029.6681  2031.4133
  2031.4133  2033.1586  2033.1586  2034.9038  2034.9038  2036.6491
  2036.6491  2038.3943  2038.3943  2040.1395  2040.1395  2041.8848
  2041.8848  2043.6300  2043.6300  2045.3753  2045.3753  2047.1205
  2047.1205  2048.8657  2048.8657  2050.6110  2018.3239  2020.0691
  2020.0691  2021.8143  2021.8143  2023.5596  2023.5596  2025.3048
  2025.3048  2027.0501  2027.0501  2028.7953  2028.7953  2030.5405
  2030.5405  2032.2858  2032.2858  2034.0310  2034.0310  2035.7763
  2035.7763  2037.5215  2037.5215  2039.2668  2039.2668  2041.0120
  2041.0120  2042.7572  2042.7572  2044.5025  2044.5025  2046.2477
  2046.2477  2047.9930  2047.9930  2049.7382  2049.7382  2051.4834
  2051.4834  2053.2287  2018.3239  2020.0691  2020.0691  2021.8143
  2021.8143  2023.5596  2023.5596  2025.3048  2025.3048  2027.0501
  2027.0501  2028.7953  2028.7953  2030.5405  2030.5405  2032.2858
  2032.2858  2034.0310  2034.0310  2035.7763  2035.7763  2037.5215
  2037.5215  2039.2668  2039.2668  2041.0120  2041.0120  2042.7572
  2042.7572  2044.5025  2044.5025  2046.2477  2046.2477  2047.9930
  2047.9930  2049.7382  2049.7382  2051.4834  2051.4834  2053.2287
  2020.9416  2022.6868  2022.6868  2024.4320  2024.4320  2026.1773
  2026.1773  2027.9225  2027.9225  2029.6678  2029.6678  2031.4130
  2031.4130  2033.1582  2033.1582  2034.9035  2034.9035  2036.6487
  2036.6487  2038.3940  2038.3940  2040.1392  2040.1392  2041.8844
  2041.8844  2043.6297  2043.6297  2045.3749  2045.3749  2047.1202
  2047.1202  2048.8654  2048.8654  2050.6106  2050.6106  2052.3559
  2052.3559  2054.1011  2054.1011  2055.8464  2002.9985  2004.7438
  2004.7438  2006.4890  2006.4890  2008.2342  2008.2342  2009.9795
  2009.9795  2011.7247  2011.7247  2013.4700  2013.4700  2015.2152
  2015.2152  2016.9604  2016.9604  2018.7057  2018.7057  2020.4509
  2020.4509  2022.1962  2022.1962  2023.9414  2023.9414  2025.6866
  2025.6866  2027.4319  2027.4319  2029.1771  2029.1771  2030.9224
  2030.9224  2032.6676  2032.6676  2034.4128  2034.4128  2036.1581
  2036.1581  2037.9033  2005.6162  2007.3615  2007.3615  2009.1067
  2009.1067  2010.8519  2010.8519  2012.5972  2012.5972  2014.3424
  2014.3424  2016.0877  2016.0877  2017.8329  2017.8329  2019.5781
  2019.5781  2021.3234  2021.3234  2023.0686  2023.0686  2024.8139
  2024.8139  2026.5591  2026.5591  2028.3043  2028.3043  2030.0496
  2030.0496  2031.7948  2031.7948  2033.5401  2033.5401  2035.2853
  2035.2853  2037.0305  2037.0305  2038.7758  2038.7758  2040.5210
  2005.6162  2007.3615  2007.3615  2009.1067  2009.1067  2010.8519
  2010.8519  2012.5972  2012.5972  2014.3424  2014.3424  2016.0877
  2016.0877  2017.8329  2017.8329  2019.5781  2019.5781  2021.3234
  2021.3234  2023.0686  2023.0686  2024.8139  2024.8139  2026.5591
  2026.5591  2028.3043  2028.3043  2030.0496  2030.0496  2031.7948
  2031.7948  2033.5401  2033.5401  2035.2853  2035.2853  2037.0305
  2037.0305  2038.7758  2038.7758  2040.5210  2008.2339  2009.9791
  2009.9791  2011.7244  2011.7244  2013.4696  2013.4696  2015.2149
  2015.2149  2016.9601  2016.9601  2018.7053  2018.7053  2020.4506
  2020.4506  2022.1958  2022.1958  2023.9411  2023.9411  2025.6863
  2025.6863  2027.4316  2027.4316  2029.1768  2029.1768  2030.9220
  2030.9220  2032.6673  2032.6673  2034.4125  2034.4125  2036.1578
  2036.1578  2037.9030  2037.9030  2039.6482  2039.6482  2041.3935
  2041.3935  2043.1387  2008.2339  2009.9791  2009.9791  2011.7244
  2011.7244  2013.4696  2013.4696  2015.2149  2015.2149  2016.9601
  2016.9601  2018.7053  2018.7053  2020.4506  2020.4506  2022.1958
  2022.1958  2023.9411  2023.9411  2025.6863  2025.6863  2027.4316
  2027.4316  2029.1768  2029.1768  2030.9220  2030.9220  2032.6673
  2032.6673  2034.4125  2034.4125  2036.1578  2036.1578  2037.9030
  2037.9030  2039.6482  2039.6482  2041.3935  2041.3935  2043.1387
  2010.8516  2012.5968  2012.5968  2014.3421  2014.3421  2016.0873
  2016.0873  2017.8326  2017.8326  2019.5778  2019.5778  2021.3230
  2021.3230  2023.0683  2023.0683  2024.8135  2024.8135  2026.5588
  2026.5588  2028.3040  2028.3040  2030.0492  2030.0492  2031.7945
  2031.7945  2033.5397  2033.5397  2035.2850  2035.2850  2037.0302
  2037.0302  2038.7754  2038.7754  2040.5207  2040.5207  2042.2659
  2042.2659  2044.0112  2044.0112  2045.7564  2010.8516  2012.5968
  2012.5968  2014.3421  2014.3421  2016.0873  2016.0873  2017.8326
  2017.8326  2019.5778  2019.5778  2021.3230  2021.3230  2023.0683
  2023.0683  2024.8135  2024.8135  2026.5588  2026.5588  2028.3040
  2028.3040  2030.0492  2030.0492  2031.7945  2031.7945  2033.5397
  2033.5397  2035.2850  2035.2850  2037.0302  2037.0302  2038.7754
  2038.7754  2040.5207  2040.5207  2042.2659  2042.2659  2044.0112
  2044.0112  2045.7564  2013.4693  2015.2145  2015.2145  2016.9598
  2016.9598  2018.7050  2018.7050  2020.4503  2020.4503  2022.1955
  2022.1955  2023.9407  2023.9407  2025.6860  2025.6860  2027.4312
  2027.4312  2029.1765  2029.1765  2030.9217  2030.9217  2032.6669
  2032.6669  2034.4122  2034.4122  2036.1574  2036.1574  2037.9027
  2037.9027  2039.6479  2039.6479  2041.3931  2041.3931  2043.1384
  2043.1384  2044.8836  2044.8836  2046.6289  2046.6289  2048.3741
  2013.4693  2015.2145  2015.2145  2016.9598  2016.9598  2018.7050
  2018.7050  2020.4503  2020.4503  2022.1955  2022.1955  2023.9407
  2023.9407  2025.6860  2025.6860  2027.4312  2027.4312  2029.1765
  2029.1765  2030.9217  2030.9217  2032.6669  2032.6669  2034.4122
  2034.4122  2036.1574  2036.1574  2037.9027  2037.9027  2039.6479
  2039.6479  2041.3931  2041.3931  2043.1384  2043.1384  2044.8836
  2044.8836  2046.6289  2046.6289  2048.3741  2016.0870  2017.8322
  2017.8322  2019.5775  2019.5775  2021.3227  2021.3227  2023.0680
  2023.0680  2024.8132  2024.8132  2026.5584  2026.5584  2028.3037
  2028.3037  2030.0489  2030.0489  2031.7942  2031.7942  2033.5394
  2033.5394  2035.2846  2035.2846  2037.0299  2037.0299  2038.7751
  2038.7751  2040.5204  2040.5204  2042.2656  2042.2656  2044.0108
  2044.0108  2045.7561  2045.7561  2047.5013  2047.5013  2049.2466
  2049.2466  2050.9918  2016.0870  2017.8322  2017.8322  2019.5775
  2019.5775  2021.3227  2021.3227  2023.0680  2023.0680  2024.8132
  2024.8132  2026.5584  2026.5584  2028.3037  2028.3037  2030.0489
  2030.0489  2031.7942  2031.7942  2033.5394  2033.5394  2035.2846
  2035.2846  2037.0299  2037.0299  2038.7751  2038.7751  2040.5204
  2040.5204  2042.2656  2042.2656  2044.0108  2044.0108  2045.7561
  2045.7561  2047.5013  2047.5013  2049.2466  2049.2466  2050.9918
  2018.7047  2020.4499  2020.4499  2022.1952  2022.1952  2023.9404
  2023.9404  2025.6856  2025.6856  2027.4309  2027.4309  2029.1761
  2029.1761  2030.9214  2030.9214  2032.6666  2032.6666  2034.4118
  2034.4118  2036.1571  2036.1571  2037.9023  2037.9023  2039.6476
  2039.6476  2041.3928  2041.3928  2043.1381  2043.1381  2044.8833
  2044.8833  2046.6285  2046.6285  2048.3738  2048.3738  2050.1190
  2050.1190  2051.8643  2051.8643  2053.6095  2018.7047  2020.4499
  2020.4499  2022.1952  2022.1952  2023.9404  2023.9404  2025.6856
  2025.6856  2027.4309  2027.4309  2029.1761  2029.1761  2030.9214
  2030.9214  2032.6666  2032.6666  2034.4118  2034.4118  2036.1571
  2036.1571  2037.9023  2037.9023  2039.6476  2039.6476  2041.3928
  2041.3928  2043.1381  2043.1381  2044.8833  2044.8833  2046.6285
  2046.6285  2048.3738  2048.3738  2050.1190  2050.1190  2051.8643
  2051.8643  2053.6095  2021.3224  2023.0676  2023.0676  2024.8129
  2024.8129  2026.5581  2026.5581  2028.3033  2028.3033  2030.0486
  2030.0486  2031.7938  2031.7938  2033.5391  2033.5391  2035.2843
  2035.2843  2037.0295  2037.0295  2038.7748  2038.7748  2040.5200
  2040.5200  2042.2653  2042.2653  2044.0105  2044.0105  2045.7557
  2045.7557  2047.5010  2047.5010  2049.2462  2049.2462  2050.9915
  2050.9915  2052.7367  2052.7367  2054.4820  2054.4820  2056.2272
  2021.3224  2023.0676  2023.0676  2024.8129  2024.8129  2026.5581
  2026.5581  2028.3033  2028.3033  2030.0486  2030.0486  2031.7938
  2031.7938  2033.5391  2033.5391  2035.2843  2035.2843  2037.0295
  2037.0295  2038.7748  2038.7748  2040.5200  2040.5200  2042.2653
  2042.2653  2044.0105  2044.0105  2045.7557  2045.7557  2047.5010
  2047.5010  2049.2462  2049.2462  2050.9915  2050.9915  2052.7367
  2052.7367  2054.4820  2054.4820  2056.2272  2023.9401  2025.6853
  2025.6853  2027.4306  2027.4306  2029.1758  2029.1758  2030.9210
  2030.9210  2032.6663  2032.6663  2034.4115  2034.4115  2036.1568
  2036.1568  2037.9020  2037.9020  2039.6472  2039.6472  2041.3925
  2041.3925  2043.1377  2043.1377  2044.8830  2044.8830  2046.6282
  2046.6282  2048.3734  2048.3734  2050.1187  2050.1187  2051.8639
  2051.8639  2053.6092  2053.6092  2055.3544  2055.3544  2057.0996
  2057.0996  2058.8449  2002.9985  2004.7438  2004.7438  2006.4890
  2006.4890  2008.2342  2008.2342  2009.9795  2009.9795  2011.7247
  2011.7247  2013.4700  2013.4700  2015.2152  2015.2152  2016.9604
  2016.9604  2018.7057  2018.7057  2020.4509  2020.4509  2022.1962
  2022.1962  2023.9414  2023.9414  2025.6866  2025.6866  2027.4319
  2027.4319  2029.1771  2029.1771  2030.9224  2030.9224  2032.6676
  2032.6676  2034.4128  2034.4128  2036.1581  2036.1581  2037.9033
  2005.6162  2007.3615  2007.3615  2009.1067  2009.1067  2010.8519
  2010.8519  2012.5972  2012.5972  2014.3424  2014.3424  2016.0877
  2016.0877  2017.8329  2017.8329  2019.5781  2019.5781  2021.3234
  2021.3234  2023.0686  2023.0686  2024.8139  2024.8139  2026.5591
  2026.5591  2028.3043  2028.3043  2030.0496  2030.0496  2031.7948
  2031.7948  2033.5401  2033.5401  2035.2853  2035.2853  2037.0305
  2037.0305  2038.7758  2038.7758  2040.5210  2005.6162  2007.3615
  2007.3615  2009.1067  2009.1067  2010.8519  2010.8519  2012.5972
  2012.5972  2014.3424  2014.3424  2016.0877  2016.0877  2017.8329
  2017.8329  2019.5781  2019.5781  2021.3234  2021.3234  2023.0686
  2023.0686  2024.8139  2024.8139  2026.5591  2026.5591  2028.3043
  2028.3043  2030.0496  2030.0496  2031.7948  2031.7948  2033.5401
  2033.5401  2035.2853  2035.2853  2037.0305  2037.0305  2038.7758
  2038.7758  2040.5210  2008.2339  2009.9791  2009.9791  2011.7244
  2011.7244  2013.4696  2013.4696  2015.2149  2015.2149  2016.9601
  2016.9601  2018.7053  2018.7053  2020.4506  2020.4506  2022.1958
  2022.1958  2023.9411  2023.9411  2025.6863  2025.6863  2027.4316
  2027.4316  2029.1768  2029.1768  2030.9220  2030.9220  2032.6673
  2032.6673  2034.4125  2034.4125  2036.1578  2036.1578  2037.9030
  2037.9030  2039.6482  2039.6482  2041.3935  2041.3935  2043.1387
  2008.2339  2009.9791  2009.9791  2011.7244  2011.7244  2013.4696
  2013.4696  2015.2149  2015.2149  2016.9601  2016.9601  2018.7053
  2018.7053  2020.4506  2020.4506  2022.1958  2022.1958  2023.9411
  2023.9411  2025.6863  2025.6863  2027.4316  2027.4316  2029.1768
  2029.1768  2030.9220  2030.9220  2032.6673  2032.6673  2034.4125
  2034.4125  2036.1578  2036.1578  2037.9030  2037.9030  2039.6482