-- This reservoir simulation deck is made available under the Open Database
-- License: http://opendatacommons.org/licenses/odbl/1.0/. Any rights in
-- individual contents of the database are licensed under the Database Contents
-- License: http://opendatacommons.org/licenses/dbcl/1.0/
-- Copyright (C) 2022 Equinor


SPECGRID
 14 10 21 1 F /

COORD
 488844.4688 6701484.5000 2740.7349 488844.4688 6701484.5000 2772.2969
 488944.1250 6701484.5000 2741.9109 488944.1250 6701484.5000 2776.2200
 489043.7812 6701484.5000 2737.9817 489043.7812 6701484.5000 2781.0388
 489143.4688 6701484.5000 2732.5022 489143.4688 6701484.5000 2787.5383
 489243.1250 6701484.5000 2730.4395 489243.1250 6701484.5000 2794.2444
 489342.8125 6701484.5000 2720.8459 489342.8125 6701484.5000 2808.8787
 489442.4688 6701484.5000 2708.2793 489442.4688 6701484.5000 2809.5557
 489542.1562 6701484.5000 2701.7156 489542.1562 6701484.5000 2811.3838
 489641.8125 6701484.5000 2709.1357 489641.8125 6701484.5000 2815.5776
 489741.4688 6701484.5000 2712.7256 489741.4688 6701484.5000 2793.5322
 489841.1562 6701484.5000 2693.9575 489841.1562 6701484.5000 2782.0198
 489940.8125 6701484.5000 2685.2510 489940.8125 6701484.5000 2718.4973
 490040.5000 6701484.5000 2681.5813 490040.5000 6701484.5000 2714.3940
 490140.1562 6701484.5000 2624.1594 490140.1562 6701484.5000 2671.0735
 490239.8125 6701484.5000 2608.3770 490239.8125 6701484.5000 2674.2258
 488844.4688 6701384.5000 2731.7151 488844.4688 6701384.5000 2762.4556
 488944.1250 6701384.5000 2731.7434 488944.1250 6701384.5000 2770.8088
 489043.7812 6701384.5000 2728.1614 489043.7812 6701384.5000 2772.8071
 489143.4688 6701384.5000 2727.7805 489143.4688 6701384.5000 2779.9087
 489243.1250 6701384.5000 2726.8689 489243.1250 6701384.5000 2800.0669
 489342.8125 6701384.5000 2716.1775 489342.8125 6701384.5000 2801.7095
 489442.4688 6701384.5000 2702.3262 489442.4688 6701384.5000 2800.7729
 489542.1562 6701384.5000 2700.9497 489542.1562 6701384.5000 2801.7649
 489641.8125 6701384.5000 2709.8870 489641.8125 6701384.5000 2808.5994
 489741.4688 6701384.5000 2716.4377 489741.4688 6701384.5000 2812.9775
 489841.1562 6701384.5000 2706.3933 489841.1562 6701384.5000 2793.9099
 489940.8125 6701384.5000 2688.6079 489940.8125 6701384.5000 2746.2769
 490040.5000 6701384.5000 2681.5813 490040.5000 6701384.5000 2683.9111
 490140.1562 6701384.5000 2680.0852 490140.1562 6701384.5000 2682.8433
 490239.8125 6701384.5000 2617.2607 490239.8125 6701384.5000 2671.7944
 488844.4688 6701284.5000 2722.5669 488844.4688 6701284.5000 2759.1404
 488944.1250 6701284.5000 2723.7041 488944.1250 6701284.5000 2768.0046
 489043.7812 6701284.5000 2717.0610 489043.7812 6701284.5000 2776.4219
 489143.4688 6701284.5000 2709.0891 489143.4688 6701284.5000 2785.4001
 489243.1250 6701284.5000 2709.7610 489243.1250 6701284.5000 2796.6404
 489342.8125 6701284.5000 2709.9602 489342.8125 6701284.5000 2797.1821
 489442.4688 6701284.5000 2705.0515 489442.4688 6701284.5000 2800.8794
 489542.1562 6701284.5000 2706.6333 489542.1562 6701284.5000 2804.1912
 489641.8125 6701284.5000 2716.0020 489641.8125 6701284.5000 2806.9604
 489741.4688 6701284.5000 2717.1675 489741.4688 6701284.5000 2811.5874
 489841.1562 6701284.5000 2714.9207 489841.1562 6701284.5000 2795.4690
 489940.8125 6701284.5000 2693.2815 489940.8125 6701284.5000 2776.0088
 490040.5000 6701284.5000 2687.5273 490040.5000 6701284.5000 2705.5896
 490140.1562 6701284.5000 2685.2085 490140.1562 6701284.5000 2701.0356
 490239.8125 6701284.5000 2615.3086 490239.8125 6701284.5000 2670.3635
 488844.4688 6701184.5000 2717.2932 488844.4688 6701184.5000 2763.4790
 488944.1250 6701184.5000 2711.1396 488944.1250 6701184.5000 2770.7451
 489043.7812 6701184.5000 2709.1873 489043.7812 6701184.5000 2778.0962
 489143.4688 6701184.5000 2708.4709 489143.4688 6701184.5000 2785.1719
 489243.1250 6701184.5000 2708.4270 489243.1250 6701184.5000 2791.9990
 489342.8125 6701184.5000 2709.1504 489342.8125 6701184.5000 2799.2251
 489442.4688 6701184.5000 2710.6453 489442.4688 6701184.5000 2804.8181
 489542.1562 6701184.5000 2715.3604 489542.1562 6701184.5000 2806.5164
 489641.8125 6701184.5000 2715.2935 489641.8125 6701184.5000 2807.2422
 489741.4688 6701184.5000 2717.8977 489741.4688 6701184.5000 2807.7952
 489841.1562 6701184.5000 2720.0747 489841.1562 6701184.5000 2797.0251
 489940.8125 6701184.5000 2700.9922 489940.8125 6701184.5000 2794.3083
 490040.5000 6701184.5000 2690.6938 490040.5000 6701184.5000 2730.3164
 490140.1562 6701184.5000 2689.0762 490140.1562 6701184.5000 2740.4983
 490239.8125 6701184.5000 2396.7026 490239.8125 6701184.5000 2671.5945
 488844.4688 6701084.5000 2704.4700 488844.4688 6701084.5000 2768.7581
 488944.1250 6701084.5000 2710.1807 488944.1250 6701084.5000 2771.9678
 489043.7812 6701084.5000 2710.3389 489043.7812 6701084.5000 2774.9773
 489143.4688 6701084.5000 2712.3091 489143.4688 6701084.5000 2787.2910
 489243.1250 6701084.5000 2712.9377 489243.1250 6701084.5000 2796.7698
 489342.8125 6701084.5000 2711.3604 489342.8125 6701084.5000 2801.3064
 489442.4688 6701084.5000 2719.9641 489442.4688 6701084.5000 2806.4419
 489542.1562 6701084.5000 2720.9954 489542.1562 6701084.5000 2806.8621
 489641.8125 6701084.5000 2721.6365 489641.8125 6701084.5000 2805.5498
 489741.4688 6701084.5000 2723.2520 489741.4688 6701084.5000 2807.9709
 489841.1562 6701084.5000 2726.6968 489841.1562 6701084.5000 2808.0869
 489940.8125 6701084.5000 2710.8601 489940.8125 6701084.5000 2797.8914
 490040.5000 6701084.5000 2695.4885 490040.5000 6701084.5000 2752.9214
 490140.1562 6701084.5000 2694.4402 490140.1562 6701084.5000 2754.2534
 490239.8125 6701084.5000 2398.7839 490239.8125 6701084.5000 2670.8013
 488844.4688 6700984.5000 2699.8425 488844.4688 6700984.5000 2769.5308
 488944.1250 6700984.5000 2702.3323 488944.1250 6700984.5000 2773.8115
 489043.7812 6700984.5000 2701.1440 489043.7812 6700984.5000 2776.8379
 489143.4688 6700984.5000 2700.9900 489143.4688 6700984.5000 2781.7588
 489243.1250 6700984.5000 2705.8433 489243.1250 6700984.5000 2789.3562
 489342.8125 6700984.5000 2711.4392 489342.8125 6700984.5000 2797.7827
 489442.4688 6700984.5000 2723.3281 489442.4688 6700984.5000 2805.5188
 489542.1562 6700984.5000 2726.5994 489542.1562 6700984.5000 2805.9744
 489641.8125 6700984.5000 2728.4175 489641.8125 6700984.5000 2809.0466
 489741.4688 6700984.5000 2734.3982 489741.4688 6700984.5000 2810.2532
 489841.1562 6700984.5000 2736.4648 489841.1562 6700984.5000 2813.2612
 489940.8125 6700984.5000 2721.9316 489940.8125 6700984.5000 2802.8054
 490040.5000 6700984.5000 2703.9072 490040.5000 6700984.5000 2760.7446
 490140.1562 6700984.5000 2696.2756 490140.1562 6700984.5000 2765.3494
 490239.8125 6700984.5000 2399.7822 490239.8125 6700984.5000 2679.4885
 488844.4688 6700884.5000 2707.1614 488844.4688 6700884.5000 2767.6360
 488944.1250 6700884.5000 2712.0015 488944.1250 6700884.5000 2775.1379
 489043.7812 6700884.5000 2712.3501 489043.7812 6700884.5000 2774.5327
 489143.4688 6700884.5000 2713.9053 489143.4688 6700884.5000 2773.7749
 489243.1250 6700884.5000 2722.3135 489243.1250 6700884.5000 2781.1057
 489342.8125 6700884.5000 2728.5085 489342.8125 6700884.5000 2790.9929
 489442.4688 6700884.5000 2731.5376 489442.4688 6700884.5000 2797.9597
 489542.1562 6700884.5000 2731.1702 489542.1562 6700884.5000 2803.2932
 489641.8125 6700884.5000 2735.7051 489641.8125 6700884.5000 2806.5422
 489741.4688 6700884.5000 2739.6802 489741.4688 6700884.5000 2810.7292
 489841.1562 6700884.5000 2744.6624 489841.1562 6700884.5000 2814.5522
 489940.8125 6700884.5000 2723.1599 489940.8125 6700884.5000 2800.8540
 490040.5000 6700884.5000 2702.5662 490040.5000 6700884.5000 2764.7603
 490140.1562 6700884.5000 2691.7366 490140.1562 6700884.5000 2696.6758
 490239.8125 6700884.5000 2688.3079 490239.8125 6700884.5000 2692.6667
 488844.4688 6700784.5000 2731.9248 488844.4688 6700784.5000 2764.2126
 488944.1250 6700784.5000 2738.3772 488944.1250 6700784.5000 2763.2910
 489043.7812 6700784.5000 2735.5867 489043.7812 6700784.5000 2761.4929
 489143.4688 6700784.5000 2733.6316 489143.4688 6700784.5000 2769.7029
 489243.1250 6700784.5000 2732.3020 489243.1250 6700784.5000 2776.8557
 489342.8125 6700784.5000 2731.7446 489342.8125 6700784.5000 2782.0884
 489442.4688 6700784.5000 2730.9485 489442.4688 6700784.5000 2790.7485
 489542.1562 6700784.5000 2730.5569 489542.1562 6700784.5000 2796.0752
 489641.8125 6700784.5000 2730.2163 489641.8125 6700784.5000 2798.4863
 489741.4688 6700784.5000 2738.3376 489741.4688 6700784.5000 2800.0103
 489841.1562 6700784.5000 2745.1072 489841.1562 6700784.5000 2801.1958
 489940.8125 6700784.5000 2726.3074 489940.8125 6700784.5000 2785.9150
 490040.5000 6700784.5000 2696.2068 490040.5000 6700784.5000 2758.8638
 490140.1562 6700784.5000 2687.7368 490140.1562 6700784.5000 2695.5496
 490239.8125 6700784.5000 2684.8098 490239.8125 6700784.5000 2693.4905
 488844.4688 6700684.0000 2730.3767 488844.4688 6700684.0000 2764.3459
 488944.1250 6700684.0000 2731.4573 488944.1250 6700684.0000 2768.7642
 489043.7812 6700684.0000 2732.1787 489043.7812 6700684.0000 2768.3801
 489143.4688 6700684.0000 2733.7749 489143.4688 6700684.0000 2773.5269
 489243.1250 6700684.0000 2734.5422 489243.1250 6700684.0000 2778.5527
 489342.8125 6700684.0000 2737.0857 489342.8125 6700684.0000 2782.2532
 489442.4688 6700684.0000 2737.7827 489442.4688 6700684.0000 2789.1436
 489542.1562 6700684.0000 2734.9612 489542.1562 6700684.0000 2790.7317
 489641.8125 6700684.0000 2737.8313 489641.8125 6700684.0000 2787.6875
 489741.4688 6700684.0000 2747.2808 489741.4688 6700684.0000 2789.4729
 489841.1562 6700684.0000 2743.9768 489841.1562 6700684.0000 2787.1257
 489940.8125 6700684.0000 2729.5942 489940.8125 6700684.0000 2774.6321
 490040.5000 6700684.0000 2697.5994 490040.5000 6700684.0000 2756.2747
 490140.1562 6700684.0000 2684.7830 490140.1562 6700684.0000 2692.3679
 490239.8125 6700684.0000 2682.8042 490239.8125 6700684.0000 2692.6094
 488844.4688 6700584.0000 2741.4028 488844.4688 6700584.0000 2763.7544
 488944.1250 6700584.0000 2740.0701 488944.1250 6700584.0000 2766.0679
 489043.7812 6700584.0000 2740.3252 489043.7812 6700584.0000 2769.8586
 489143.4688 6700584.0000 2743.2466 489143.4688 6700584.0000 2771.4497
 489243.1250 6700584.0000 2746.4312 489243.1250 6700584.0000 2773.2917
 489342.8125 6700584.0000 2747.8472 489342.8125 6700584.0000 2779.3911
 489442.4688 6700584.0000 2748.0637 489442.4688 6700584.0000 2784.0256
 489542.1562 6700584.0000 2747.9563 489542.1562 6700584.0000 2785.9971
 489641.8125 6700584.0000 2750.7485 489641.8125 6700584.0000 2787.9473
 489741.4688 6700584.0000 2749.8862 489741.4688 6700584.0000 2785.2805
 489841.1562 6700584.0000 2741.6528 489841.1562 6700584.0000 2779.8198
 489940.8125 6700584.0000 2716.9390 489940.8125 6700584.0000 2764.3457
 490040.5000 6700584.0000 2696.4929 490040.5000 6700584.0000 2755.5598
 490140.1562 6700584.0000 2690.4028 490140.1562 6700584.0000 2695.5100
 490239.8125 6700584.0000 2683.7520 490239.8125 6700584.0000 2692.2471
 488844.4688 6700484.0000 2741.4028 488844.4688 6700484.0000 3008.3950
 488944.1250 6700484.0000 2740.0701 488944.1250 6700484.0000 3008.5220
 489043.7812 6700484.0000 2740.3252 489043.7812 6700484.0000 3014.3398
 489143.4688 6700484.0000 2743.2466 489143.4688 6700484.0000 3021.6233
 489243.1250 6700484.0000 2746.4312 489243.1250 6700484.0000 3029.2666
 489342.8125 6700484.0000 2747.8472 489342.8125 6700484.0000 3035.2468
 489442.4688 6700484.0000 2748.0637 489442.4688 6700484.0000 3032.3633
 489542.1562 6700484.0000 2747.9563 489542.1562 6700484.0000 3021.3181
 489641.8125 6700484.0000 2750.7485 489641.8125 6700484.0000 3020.0996
 489741.4688 6700484.0000 2749.8862 489741.4688 6700484.0000 3015.1633
 489841.1562 6700484.0000 2741.6528 489841.1562 6700484.0000 2983.4570
 489940.8125 6700484.0000 2711.9390 489940.8125 6700484.0000 2901.8308
 490040.5000 6700484.0000 2692.2202 490040.5000 6700484.0000 2833.4109
 490140.1562 6700484.0000 2690.4028 490140.1562 6700484.0000 2758.7893
 490239.8125 6700484.0000 2631.3826 490239.8125 6700484.0000 2692.2471
/

ZCORN
 2742.6733 2745.7468 2745.7468 2744.3325 2744.2153 2736.3521 2735.7913 2725.2476
 2727.4883 2717.0637 2717.0637 2708.8281 2708.8281 2708.4272 2706.7930 2709.3369
 2709.9690 2711.8760 2711.8562 2709.3247 2690.2441 2683.4651 2683.4651 2680.0054
 2658.9814 2659.3479 2624.1702 2608.3770 2740.7349 2741.9109 2741.9109 2739.0200
 2737.9817 2734.9783 2732.5022 2727.5415 2730.4395 2720.8459 2720.8459 2708.2793
 2708.2793 2706.3872 2701.7156 2709.1357 2709.1357 2712.7256 2712.7256 2709.3147
 2693.9575 2685.2510 2685.2510 2681.5813 2657.8965 2659.0789 2624.5547 2617.2607
 2740.7349 2741.9109 2741.9109 2737.9817 2737.9817 2733.0002 2735.5542 2737.3574
 2732.3574 2730.2200 2720.8459 2708.2793 2708.2793 2701.7156 2701.7156 2709.1357
 2709.1357 2712.7256 2714.7878 2713.3811 2703.9575 2695.2512 2685.2510 2681.5813
 2681.5813 2680.0852 2630.3096 2624.0771 2731.7151 2732.0469 2731.7434 2727.9146
 2728.1614 2725.1455 2727.7805 2731.8689 2726.8689 2726.4463 2716.1775 2702.3262
 2702.3262 2700.9497 2700.9497 2709.8870 2709.8870 2716.4377 2716.4377 2714.4739
 2706.3933 2697.8157 2688.6079 2684.3701 2684.3701 2682.4814 2626.7480 2622.1914
 2731.7151 2732.0469 2731.7434 2730.9534 2730.9534 2727.7805 2727.7805 2723.8491
 2723.8491 2716.1775 2716.1775 2702.3262 2702.3262 2700.9497 2700.9497 2709.8870
 2712.9583 2716.4377 2716.4377 2714.4739 2714.4739 2709.9031 2688.6079 2684.3701
 2684.3701 2682.4814 2641.3987 2642.8367 2722.5669 2723.7678 2723.7041 2722.0229
 2717.0610 2713.3440 2709.0891 2709.7610 2709.7610 2709.9602 2709.9602 2705.0515
 2705.0515 2706.6333 2706.6333 2716.0020 2716.0020 2717.1675 2717.1675 2715.2688
 2714.9207 2707.6736 2693.2815 2687.5273 2687.5273 2685.2085 2644.2815 2650.3967
 2722.5669 2723.7041 2723.1501 2717.0610 2717.0610 2709.0891 2709.0891 2709.7610
 2709.7610 2709.9602 2709.9602 2705.0515 2707.7642 2707.9512 2707.9512 2716.0020
 2716.0020 2716.6064 2716.6064 2714.9207 2714.9207 2707.6736 2693.2815 2687.5273
 2687.5273 2685.2085 2685.2085 2629.1709 2717.2932 2718.9326 2711.1396 2709.1873
 2709.1873 2708.4709 2708.4709 2708.4270 2708.4270 2709.1504 2709.1504 2710.6453
 2710.6453 2715.3604 2715.3604 2715.2935 2715.2935 2717.8977 2717.8977 2720.0747
 2720.0747 2715.5867 2700.9922 2690.6938 2690.6938 2689.0762 2689.0762 2655.2288
 2715.6047 2711.1396 2711.1396 2710.5310 2709.1873 2711.9343 2708.4709 2714.2825
 2708.4270 2709.1504 2709.1504 2710.6453 2714.8662 2715.3604 2715.3604 2715.2935
 2715.2935 2717.8977 2717.8977 2720.0747 2720.0747 2715.5867 2700.9922 2690.6938
 2690.6938 2689.0762 2689.0762 2655.2288 2704.4700 2707.7583 2710.1807 2712.0134
 2710.3389 2713.0952 2712.3091 2713.9001 2712.9377 2713.5317 2711.3604 2713.7346
 2719.9641 2720.9954 2720.9954 2721.6365 2721.6365 2723.2520 2723.2520 2726.6968
 2726.6968 2723.8948 2710.8601 2695.4885 2695.4885 2694.4402 2694.4402 2655.1003
 2704.4700 2707.7583 2707.7583 2710.3389 2710.3389 2712.3091 2712.3091 2712.9377
 2712.9377 2711.3604 2711.3604 2713.7346 2719.9641 2720.9954 2720.9954 2721.6365
 2721.6365 2723.2520 2723.2520 2726.7117 2726.7117 2728.2959 2715.8601 2698.7573
 2695.4885 2694.4402 2694.4402 2655.1003 2699.8425 2702.3323 2702.3323 2701.1440
 2701.1440 2700.9900 2700.9900 2705.8433 2705.8433 2711.4392 2711.4392 2720.4226
 2723.3281 2726.5994 2726.5994 2728.4175 2728.4175 2734.3982 2734.3982 2736.4648
 2736.4648 2733.1587 2721.9316 2708.9072 2703.9072 2696.2756 2696.2756 2655.7190
 2699.8425 2702.3323 2702.3323 2701.1440 2701.1440 2700.9900 2700.9900 2705.8433
 2705.8433 2711.4392 2715.9680 2720.4226 2723.3281 2726.5994 2726.5994 2729.5049
 2729.5049 2735.8406 2734.3982 2736.4648 2736.4648 2733.1587 2726.9316 2713.9070
 2703.9072 2696.2756 2696.2756 2690.8977 2707.1614 2712.0015 2712.0015 2712.3501
 2712.3501 2713.9053 2713.9053 2722.3135 2722.3135 2728.5085 2728.5085 2731.5376
 2731.5376 2731.1702 2731.1702 2735.7051 2735.7051 2744.6802 2739.6802 2744.6624
 2744.6624 2739.5039 2723.1599 2708.3438 2702.5662 2691.7366 2691.7366 2688.3079
 2707.1614 2715.7346 2712.0015 2715.3379 2712.3501 2713.9053 2718.4531 2725.9351
 2722.3135 2728.5085 2728.5085 2731.5376 2731.5376 2731.1702 2731.1702 2735.5000
 2735.5000 2739.6470 2739.6470 2744.6624 2747.1096 2744.5039 2728.1599 2713.3435
 2702.5662 2691.7366 2691.7366 2688.3079 2731.9248 2738.3772 2738.3772 2735.5867
 2735.5867 2733.6316 2733.6316 2733.6819 2732.3020 2731.7446 2731.7446 2731.5381
 2730.9485 2730.5569 2730.5569 2730.2163 2730.2163 2738.3376 2738.3376 2745.1072
 2745.1072 2735.2922 2726.3074 2708.0110 2696.2068 2687.7368 2687.7368 2684.8098
 2731.9248 2738.3772 2738.3772 2735.6567 2735.5867 2733.7708 2733.6316 2732.3020
 2732.3020 2731.7446 2731.7446 2730.9485 2730.9485 2730.5569 2730.5569 2730.2163
 2730.2163 2738.3376 2743.8479 2745.1072 2745.1072 2730.3237 2721.3074 2703.0110
 2696.2068 2687.7368 2687.7368 2684.8098 2730.3767 2731.4573 2731.4573 2734.8145
 2732.1787 2736.5032 2733.7749 2734.5422 2734.5422 2737.0857 2737.0857 2737.7827
 2737.7827 2734.9612 2734.9612 2737.8313 2737.8313 2747.2808 2747.2808 2743.9768
 2743.9768 2728.7549 2729.5942 2707.5994 2697.5994 2684.7830 2684.7830 2682.8042
 2730.3767 2731.4573 2731.4573 2732.1787 2732.1787 2733.7749 2733.7749 2734.5422
 2734.5422 2737.0857 2737.0857 2737.7827 2737.7827 2734.9612 2734.9612 2737.8313
 2740.3103 2747.2808 2747.2808 2743.9768 2743.9768 2723.7549 2724.5945 2702.5994
 2697.5994 2684.7830 2684.7830 2682.8042 2741.4028 2740.0701 2740.0701 2740.3252
 2740.3252 2743.2466 2743.2466 2746.4312 2746.4312 2747.8472 2747.8472 2748.0637
 2748.0637 2747.9563 2747.9563 2750.7485 2750.7485 2749.8862 2749.8862 2741.6528
 2741.6528 2721.2522 2716.9390 2701.4932 2696.4929 2690.4028 2690.4028 2683.7520
 2742.6733 2745.7468 2745.7468 2744.3325 2744.2153 2736.3521 2735.7913 2725.2476
 2727.4883 2717.0637 2717.0637 2708.8281 2708.8281 2708.4272 2706.7930 2709.9690
 2709.9690 2711.8760 2711.8760 2709.8508 2695.2444 2688.4651 2688.4651 2685.0054
 2658.9814 2659.3479 2624.1702 2608.3770 2740.7349 2741.9109 2741.9109 2739.0200
 2737.9817 2734.9783 2732.5022 2727.5415 2730.4395 2720.8459 2720.8459 2708.2793
 2708.2793 2706.3872 2701.7156 2709.1357 2709.1357 2712.7256 2712.7256 2709.3147
 2698.9575 2690.2510 2690.2510 2683.9111 2657.8965 2659.0789 2624.5547 2617.2607
 2740.7349 2741.9109 2741.9109 2737.9817 2737.9817 2733.0002 2735.5542 2737.3574
 2732.3574 2730.2200 2720.8459 2708.2793 2708.2793 2701.7156 2701.7156 2709.1357
 2709.1357 2712.7256 2714.7878 2713.3811 2703.9575 2695.2512 2690.2510 2683.9111
 2683.9111 2682.8433 2630.3096 2624.0771 2731.7151 2732.0469 2731.7434 2727.9146
 2728.1614 2725.1455 2727.7805 2731.8689 2726.8689 2726.4463 2716.1775 2706.0776
 2706.0776 2705.9500 2705.9500 2709.8870 2709.8870 2716.4377 2716.4377 2714.4739
 2706.3933 2697.8157 2692.8157 2684.3701 2684.3701 2682.4814 2626.7480 2622.1914
 2731.7151 2732.0469 2731.7434 2730.9534 2730.9534 2727.7805 2727.7805 2723.8491
 2723.8491 2716.1775 2716.1775 2706.0776 2706.0776 2705.9500 2705.9500 2709.8870
 2712.9583 2716.4377 2716.4377 2714.4739 2714.4739 2709.9031 2692.8157 2684.3701
 2684.3701 2682.4814 2641.3987 2642.8367 2722.5669 2723.7678 2723.7041 2722.0229
 2717.0610 2713.3440 2709.0891 2709.7610 2709.7610 2709.9602 2709.9602 2707.7642
 2707.7642 2707.9512 2707.9512 2716.0020 2716.0020 2717.1675 2717.1675 2715.2688
 2714.9207 2709.7693 2698.2812 2687.5273 2687.5273 2685.2085 2644.2815 2650.3967
 2722.5669 2723.7041 2723.1501 2717.0610 2717.0610 2709.0891 2709.0891 2709.7610
 2709.7610 2709.9602 2709.9602 2707.7642 2707.7642 2707.9512 2707.9512 2716.0020
 2716.0020 2716.6064 2716.6064 2714.9207 2714.9207 2709.7693 2698.2812 2687.5273
 2687.5273 2685.2085 2685.2085 2629.1709 2717.2932 2718.9326 2711.1396 2709.1873
 2709.1873 2708.4709 2708.4709 2708.4270 2708.4270 2709.1504 2709.1504 2710.6453
 2710.6453 2715.3604 2715.3604 2715.2935 2715.2935 2717.8977 2717.8977 2720.7656
 2720.7656 2720.5867 2705.9924 2690.6938 2690.6938 2689.0762 2689.0762 2655.2288
 2715.6047 2711.1396 2711.1396 2710.5310 2709.1873 2711.9343 2708.4709 2714.2825
 2708.4270 2709.1504 2709.1504 2710.6453 2714.8662 2715.3604 2715.3604 2715.2935
 2715.2935 2717.8977 2717.8977 2720.7656 2720.7656 2720.5867 2705.9924 2690.6938
 2690.6938 2689.0762 2689.0762 2655.2288 2704.4700 2707.7583 2710.1807 2712.0134
 2710.3389 2713.0952 2712.3091 2713.9001 2712.9377 2713.5317 2713.5317 2714.9641
 2719.9641 2720.9954 2720.9954 2721.6365 2721.6365 2723.2520 2723.2520 2726.7117
 2726.7117 2728.2959 2715.8601 2698.7573 2698.7573 2694.4402 2694.4402 2655.1003
 2704.4700 2707.7583 2707.7583 2710.3389 2710.3389 2712.3091 2712.3091 2712.9377
 2712.9377 2713.5317 2713.5317 2714.9641 2719.9641 2720.9954 2720.9954 2721.6365
 2721.6365 2723.2520 2723.2520 2726.7117 2726.7117 2728.2959 2715.8601 2698.7573
 2698.7573 2694.4402 2694.4402 2655.1003 2699.8425 2702.3323 2702.3323 2701.1440
 2701.1440 2700.9900 2700.9900 2708.9761 2708.9761 2715.9680 2715.9680 2720.4226
 2723.3281 2726.5994 2726.5994 2728.4175 2728.4175 2734.3982 2734.3982 2736.4648
 2736.4648 2733.1587 2721.9316 2708.9072 2708.9072 2696.2756 2696.2756 2655.7190
 2699.8425 2702.3323 2702.3323 2701.1440 2701.1440 2700.9900 2700.9900 2708.9761
 2708.9761 2715.9680 2715.9680 2720.4226 2723.3281 2726.5994 2726.5994 2729.5049
 2729.5049 2735.8406 2734.3982 2736.4648 2736.4648 2733.1587 2726.9316 2713.9070
 2708.9072 2696.2756 2696.2756 2690.8977 2707.1614 2712.0015 2712.0015 2712.3501
 2712.3501 2713.9053 2713.9053 2722.3135 2722.3135 2728.5085 2728.5085 2731.5376
 2731.5376 2731.1702 2731.1702 2735.7051 2735.7051 2744.6802 2739.6802 2744.6624
 2744.6624 2739.5039 2723.1599 2708.3438 2703.3438 2691.7366 2691.7366 2688.3079
 2707.1614 2715.7346 2712.0015 2715.3379 2712.3501 2713.9053 2718.4531 2725.9351
 2722.3135 2728.5085 2728.5085 2731.5376 2731.5376 2731.1702 2731.1702 2735.5000
 2735.5000 2739.6802 2739.6802 2744.6624 2747.1096 2744.5039 2728.1599 2713.3435
 2703.3438 2691.7366 2691.7366 2688.3079 2731.9248 2738.3772 2738.3772 2735.5867
 2735.5867 2733.6316 2733.6316 2733.6819 2732.3020 2731.7446 2731.7446 2731.5381
 2730.9485 2730.5569 2730.5569 2731.9973 2731.9973 2738.8479 2738.8479 2745.1072
 2745.1072 2735.2922 2726.3074 2708.0110 2698.0110 2687.7368 2687.7368 2684.8098
 2731.9248 2738.3772 2738.3772 2735.6567 2735.5867 2733.7708 2733.6316 2732.3020
 2732.3020 2731.7446 2731.7446 2730.9485 2730.9485 2730.5569 2730.5569 2731.9973
 2731.9973 2738.8479 2743.8479 2745.1072 2745.1072 2730.3237 2721.3074 2703.0110
 2698.0110 2687.7368 2687.7368 2684.8098 2730.3767 2731.4573 2731.4573 2734.8145
 2732.1787 2736.5032 2733.7749 2734.5422 2734.5422 2737.0857 2737.0857 2737.7827
 2737.7827 2734.9612 2734.9612 2737.8313 2737.8313 2747.2808 2747.2808 2743.9768
 2743.9768 2728.7549 2729.5942 2707.5994 2702.5994 2684.7830 2684.7830 2682.8042
 2730.3767 2731.4573 2731.4573 2732.1787 2732.1787 2733.7749 2733.7749 2734.5422
 2734.5422 2737.0857 2737.0857 2737.7827 2737.7827 2734.9612 2734.9612 2737.8313
 2740.3103 2747.2808 2747.2808 2743.9768 2743.9768 2728.7549 2724.5945 2702.5994
 2702.5994 2684.7830 2684.7830 2682.8042 2741.4028 2740.0701 2740.0701 2740.3252
 2740.3252 2743.2466 2743.2466 2746.4312 2746.4312 2747.8472 2747.8472 2748.0637
 2748.0637 2747.9563 2747.9563 2750.7485 2750.7485 2749.8862 2749.8862 2741.6528
 2741.6528 2724.8926 2716.9390 2701.4932 2701.4932 2690.5100 2690.5100 2687.2471
 2742.6733 2745.7468 2745.7468 2744.3325 2744.2153 2736.3521 2735.7913 2725.2476
 2727.4883 2717.0637 2717.0637 2708.8281 2708.8281 2708.4272 2706.7930 2709.9690
 2709.9690 2711.8760 2711.8760 2709.8508 2695.2444 2688.4651 2688.4651 2685.0054
 2658.9814 2659.3479 2624.1702 2608.3770 2740.7349 2741.9109 2741.9109 2739.0200
 2737.9817 2734.9783 2732.5022 2727.5415 2730.4395 2720.8459 2720.8459 2708.2793
 2708.2793 2706.3872 2701.7156 2709.1357 2709.1357 2712.7256 2712.7256 2709.3147
 2698.9575 2690.2510 2690.2510 2683.9111 2657.8965 2659.0789 2624.5547 2617.2607
 2740.7349 2741.9109 2741.9109 2737.9817 2737.9817 2733.0002 2735.5542 2737.3574
 2732.3574 2730.2200 2720.8459 2708.2793 2708.2793 2701.7156 2701.7156 2709.1357
 2709.1357 2712.7256 2714.7878 2713.3811 2703.9575 2695.2512 2690.2510 2683.9111
 2683.9111 2682.8433 2630.3096 2624.0771 2731.7151 2732.0469 2731.7434 2727.9146
 2728.1614 2725.1455 2727.7805 2731.8689 2726.8689 2726.4463 2716.1775 2706.0776
 2706.0776 2705.9500 2705.9500 2709.8870 2709.8870 2716.4377 2716.4377 2714.4739
 2706.3933 2697.8157 2692.8157 2684.3701 2684.3701 2682.4814 2626.7480 2622.1914
 2731.7151 2732.0469 2731.7434 2730.9534 2730.9534 2727.7805 2727.7805 2723.8491
 2723.8491 2716.1775 2716.1775 2706.0776 2706.0776 2705.9500 2705.9500 2709.8870
 2712.9583 2716.4377 2716.4377 2714.4739 2714.4739 2709.9031 2692.8157 2684.3701
 2684.3701 2682.4814 2641.3987 2642.8367 2722.5669 2723.7678 2723.7041 2722.0229
 2717.0610 2713.3440 2709.0891 2709.7610 2709.7610 2709.9602 2709.9602 2707.7642
 2707.7642 2707.9512 2707.9512 2716.0020 2716.0020 2717.1675 2717.1675 2715.2688
 2714.9207 2709.7693 2698.2812 2687.5273 2687.5273 2685.2085 2644.2815 2650.3967
 2722.5669 2723.7041 2723.1501 2717.0610 2717.0610 2709.0891 2709.0891 2709.7610
 2709.7610 2709.9602 2709.9602 2707.7642 2707.7642 2707.9512 2707.9512 2716.0020
 2716.0020 2716.6064 2716.6064 2714.9207 2714.9207 2709.7693 2698.2812 2687.5273
 2687.5273 2685.2085 2685.2085 2629.1709 2717.2932 2718.9326 2711.1396 2709.1873
 2709.1873 2708.4709 2708.4709 2708.4270 2708.4270 2709.1504 2709.1504 2710.6453
 2710.6453 2715.3604 2715.3604 2715.2935 2715.2935 2717.8977 2717.8977 2720.7656
 2720.7656 2720.5867 2705.9924 2690.6938 2690.6938 2689.0762 2689.0762 2655.2288
 2715.6047 2711.1396 2711.1396 2710.5310 2709.1873 2711.9343 2708.4709 2714.2825
 2708.4270 2709.1504 2709.1504 2710.6453 2714.8662 2715.3604 2715.3604 2715.2935
 2715.2935 2717.8977 2717.8977 2720.7656 2720.7656 2720.5867 2705.9924 2690.6938
 2690.6938 2689.0762 2689.0762 2655.2288 2704.4700 2707.7583 2710.1807 2712.0134
 2710.3389 2713.0952 2712.3091 2713.9001 2712.9377 2713.5317 2713.5317 2714.9641
 2719.9641 2720.9954 2720.9954 2721.6365 2721.6365 2723.2520 2723.2520 2726.7117
 2726.7117 2728.2959 2715.8601 2698.7573 2698.7573 2694.4402 2694.4402 2655.1003
 2704.4700 2707.7583 2707.7583 2710.3389 2710.3389 2712.3091 2712.3091 2712.9377
 2712.9377 2713.5317 2713.5317 2714.9641 2719.9641 2720.9954 2720.9954 2721.6365
 2721.6365 2723.2520 2723.2520 2726.7117 2726.7117 2728.2959 2715.8601 2698.7573
 2698.7573 2694.4402 2694.4402 2655.1003 2699.8425 2702.3323 2702.3323 2701.1440
 2701.1440 2700.9900 2700.9900 2708.9761 2708.9761 2715.9680 2715.9680 2720.4226
 2723.3281 2726.5994 2726.5994 2728.4175 2728.4175 2734.3982 2734.3982 2736.4648
 2736.4648 2733.1587 2721.9316 2708.9072 2708.9072 2696.2756 2696.2756 2655.7190
 2699.8425 2702.3323 2702.3323 2701.1440 2701.1440 2700.9900 2700.9900 2708.9761
 2708.9761 2715.9680 2715.9680 2720.4226 2723.3281 2726.5994 2726.5994 2729.5049
 2729.5049 2735.8406 2734.3982 2736.4648 2736.4648 2733.1587 2726.9316 2713.9070
 2708.9072 2696.2756 2696.2756 2690.8977 2707.1614 2712.0015 2712.0015 2712.3501
 2712.3501 2713.9053 2713.9053 2722.3135 2722.3135 2728.5085 2728.5085 2731.5376
 2731.5376 2731.1702 2731.1702 2735.7051 2735.7051 2744.6802 2739.6802 2744.6624
 2744.6624 2739.5039 2723.1599 2708.3438 2703.3438 2691.7366 2691.7366 2688.3079
 2707.1614 2715.7346 2712.0015 2715.3379 2712.3501 2713.9053 2718.4531 2725.9351
 2722.3135 2728.5085 2728.5085 2731.5376 2731.5376 2731.1702 2731.1702 2735.5000
 2735.5000 2739.6802 2739.6802 2744.6624 2747.1096 2744.5039 2728.1599 2713.3435
 2703.3438 2691.7366 2691.7366 2688.3079 2731.9248 2738.3772 2738.3772 2735.5867
 2735.5867 2733.6316 2733.6316 2733.6819 2732.3020 2731.7446 2731.7446 2731.5381
 2730.9485 2730.5569 2730.5569 2731.9973 2731.9973 2738.8479 2738.8479 2745.1072
 2745.1072 2735.2922 2726.3074 2708.0110 2698.0110 2687.7368 2687.7368 2684.8098
 2731.9248 2738.3772 2738.3772 2735.6567 2735.5867 2733.7708 2733.6316 2732.3020
 2732.3020 2731.7446 2731.7446 2730.9485 2730.9485 2730.5569 2730.5569 2731.9973
 2731.9973 2738.8479 2743.8479 2745.1072 2745.1072 2730.3237 2721.3074 2703.0110
 2698.0110 2687.7368 2687.7368 2684.8098 2730.3767 2731.4573 2731.4573 2734.8145
 2732.1787 2736.5032 2733.7749 2734.5422 2734.5422 2737.0857 2737.0857 2737.7827
 2737.7827 2734.9612 2734.9612 2737.8313 2737.8313 2747.2808 2747.2808 2743.9768
 2743.9768 2728.7549 2729.5942 2707.5994 2702.5994 2684.7830 2684.7830 2682.8042
 2730.3767 2731.4573 2731.4573 2732.1787 2732.1787 2733.7749 2733.7749 2734.5422
 2734.5422 2737.0857 2737.0857 2737.7827 2737.7827 2734.9612 2734.9612 2737.8313
 2740.3103 2747.2808 2747.2808 2743.9768 2743.9768 2728.7549 2724.5945 2702.5994
 2702.5994 2684.7830 2684.7830 2682.8042 2741.4028 2740.0701 2740.0701 2740.3252
 2740.3252 2743.2466 2743.2466 2746.4312 2746.4312 2747.8472 2747.8472 2748.0637
 2748.0637 2747.9563 2747.9563 2750.7485 2750.7485 2749.8862 2749.8862 2741.6528
 2741.6528 2724.8926 2716.9390 2701.4932 2701.4932 2690.5100 2690.5100 2687.2471
 2742.6733 2745.7468 2745.7468 2744.3325 2744.2153 2736.3521 2735.7913 2725.2476
 2727.4883 2717.0637 2717.0637 2708.8281 2708.8281 2708.4272 2708.4272 2714.9690
 2714.9690 2716.8762 2716.8762 2714.8508 2700.2444 2693.4651 2693.4651 2690.0054
 2658.9814 2659.3479 2624.1702 2608.3770 2740.7349 2741.9109 2741.9109 2739.0200
 2737.9817 2734.9783 2732.5022 2727.5415 2730.4395 2720.8459 2720.8459 2708.2793
 2708.2793 2706.3872 2706.3872 2712.8362 2712.8362 2714.7878 2714.7878 2713.3811
 2703.9575 2695.2512 2695.2512 2688.9111 2657.8965 2659.0789 2624.5547 2617.2607
 2740.7349 2741.9109 2741.9109 2737.9817 2737.9817 2733.0002 2735.5542 2737.3574
 2732.3574 2730.2200 2720.8459 2708.2793 2708.2793 2706.3872 2706.3872 2712.8362
 2712.8362 2714.7878 2714.7878 2713.3811 2703.9575 2695.2512 2695.2512 2688.9111
 2683.9111 2682.8433 2630.3096 2624.0771 2731.7151 2732.0469 2731.7434 2727.9146