SPECGRID
 43  1  1  / 
  
COORD
         0.1            0     4626.145          0.1            0     4656.145  
         0.3            0     4626.145          0.3            0     4656.145  
       0.535            0     4626.145        0.535            0     4656.145  
    0.811125            0     4626.145     0.811125            0     4656.145  
   1.1355719            0     4626.145    1.1355719            0     4656.145  
    1.516797            0     4626.145     1.516797            0     4656.145  
   1.9647364            0     4626.145    1.9647364            0     4656.145  
   2.4910653            0     4626.145    2.4910653            0     4656.145  
   3.1095017            0     4626.145    3.1095017            0     4656.145  
   3.8361645            0     4626.145    3.8361645            0     4656.145  
   4.6899933            0     4626.145    4.6899933            0     4656.145  
   5.6932421            0     4626.145    5.6932421            0     4656.145  
   6.8720595            0     4626.145    6.8720595            0     4656.145  
   8.2571699            0     4626.145    8.2571699            0     4656.145  
   9.8846747            0     4626.145    9.8846747            0     4656.145  
   11.796993            0     4626.145    11.796993            0     4656.145  
   14.043966            0     4626.145    14.043966            0     4656.145  
   16.684161            0     4626.145    16.684161            0     4656.145  
   19.786389            0     4626.145    19.786389            0     4656.145  
   23.431507            0     4626.145    23.431507            0     4656.145  
    27.71452            0     4626.145     27.71452            0     4656.145  
   32.747061            0     4626.145    32.747061            0     4656.145  
   38.660297            0     4626.145    38.660297            0     4656.145  
   45.608349            0     4626.145    45.608349            0     4656.145  
    53.77231            0     4626.145     53.77231            0     4656.145  
   63.364965            0     4626.145    63.364965            0     4656.145  
   74.636333            0     4626.145    74.636333            0     4656.145  
   87.880192            0     4626.145    87.880192            0     4656.145  
   103.44173            0     4626.145    103.44173            0     4656.145  
   121.72653            0     4626.145    121.72653            0     4656.145  
   143.21117            0     4626.145    143.21117            0     4656.145  
   168.45562            0     4626.145    168.45562            0     4656.145  
   198.11786            0     4626.145    198.11786            0     4656.145  
   232.97098            0     4626.145    232.97098            0     4656.145  
   273.92341            0     4626.145    273.92341            0     4656.145  
    322.0425            0     4626.145     322.0425            0     4656.145  
   378.58244            0     4626.145    378.58244            0     4656.145  
   445.01687            0     4626.145    445.01687            0     4656.145  
   523.07732            0     4626.145    523.07732            0     4656.145  
   614.79835            0     4626.145    614.79835            0     4656.145  
   722.57056            0     4626.145    722.57056            0     4656.145  
   849.20291            0     4626.145    849.20291            0     4656.145  
   997.99592            0     4626.145    997.99592            0     4656.145  
   1172.8277            0     4626.145    1172.8277            0     4656.145  
 0.080901699  0.058778525     4626.145  0.080901699  0.058778525     4656.145  
   0.2427051   0.17633558     4626.145    0.2427051   0.17633558     4656.145  
  0.43282409   0.31446511     4626.145   0.43282409   0.31446511     4656.145  
  0.65621391   0.47676731     4626.145   0.65621391   0.47676731     4656.145  
  0.91869695    0.6674724     4626.145   0.91869695    0.6674724     4656.145  
   1.2271145   0.89155088     4626.145    1.2271145   0.89155088     4656.145  
   1.5895052    1.1548431     4626.145    1.5895052    1.1548431     4656.145  
   2.0153142    1.4642114     4626.145    2.0153142    1.4642114     4656.145  
   2.5156397    1.8277193     4626.145    2.5156397    1.8277193     4656.145  
   3.1035223    2.2548409     4626.145    3.1035223    2.2548409     4656.145  
   3.7942843    2.7567089     4626.145    3.7942843    2.7567089     4656.145  
   4.6059296    3.3464038     4626.145    4.6059296    3.3464038     4656.145  
   5.5596129    4.0392952     4626.145    5.5596129    4.0392952     4656.145  
   6.6801908    4.8534427     4626.145    6.6801908    4.8534427     4656.145  
   7.9968698     5.810066     4626.145    7.9968698     5.810066     4656.145  
   9.5439676    6.9340984     4626.145    9.5439676    6.9340984     4656.145  
   11.361808    8.2548364     4626.145    11.361808    8.2548364     4656.145  
   13.497769    9.8067035     4626.145    13.497769    9.8067035     4656.145  
   16.007525    11.630147     4626.145    16.007525    11.630147     4656.145  
   18.956487    13.772694     4626.145    18.956487    13.772694     4656.145  
   22.421518    16.290186     4626.145    22.421518    16.290186     4656.145  
   26.492929     19.24824     4626.145    26.492929     19.24824     4656.145  
   31.276837    22.723953     4626.145    31.276837    22.723953     4656.145  
    36.89793    26.807915     4626.145     36.89793    26.807915     4656.145  
   43.502713    31.606571     4626.145    43.502713    31.606571     4656.145  
   51.263333    37.244992     4626.145    51.263333    37.244992     4656.145  
   60.382062    43.870136     4626.145    60.382062    43.870136     4656.145  
   71.096569    51.654681     4626.145    71.096569    51.654681     4656.145  
   83.686114    60.801521     4626.145    83.686114    60.801521     4656.145  
   98.478829    71.549058     4626.145    98.478829    71.549058     4656.145  
   115.86027    84.177413     4626.145    115.86027    84.177413     4656.145  
   136.28346    99.015732     4626.145    136.28346    99.015732     4656.145  
   160.28071    116.45076     4626.145    160.28071    116.45076     4656.145  
   188.47749    136.93691     4626.145    188.47749    136.93691     4656.145  
   221.60869    161.00814     4626.145    221.60869    161.00814     4656.145  
   260.53786    189.29183     4626.145    260.53786    189.29183     4656.145  
   306.27963    222.52517     4626.145    306.27963    222.52517     4656.145  
   360.02621    261.57435     4626.145    360.02621    261.57435     4656.145  
   423.17844    307.45713     4626.145    423.17844    307.45713     4656.145  
   497.38231     361.3694     4626.145    497.38231     361.3694     4656.145  
   584.57186    424.71632     4626.145    584.57186    424.71632     4656.145  
   687.01958    499.14895     4626.145    687.01958    499.14895     4656.145  
   807.39566    586.60728     4626.145    807.39566    586.60728     4656.145  
   948.83754    689.37083     4626.145    948.83754    689.37083     4656.145  
/ 
  
ZCORN
     4626.145      4626.145      4626.145      4626.145      4626.145      4626.145 
     4626.145      4626.145      4626.145      4626.145      4626.145      4626.145 
     4626.145      4626.145      4626.145      4626.145      4626.145      4626.145 
     4626.145      4626.145      4626.145      4626.145      4626.145      4626.145 
     4626.145      4626.145      4626.145      4626.145      4626.145      4626.145 
     4626.145      4626.145      4626.145      4626.145      4626.145      4626.145 
     4626.145      4626.145      4626.145      4626.145      4626.145      4626.145 
     4626.145      4626.145      4626.145      4626.145      4626.145      4626.145 
     4626.145      4626.145      4626.145      4626.145      4626.145      4626.145 
     4626.145      4626.145      4626.145      4626.145      4626.145      4626.145 
     4626.145      4626.145      4626.145      4626.145      4626.145      4626.145 
     4626.145      4626.145      4626.145      4626.145      4626.145      4626.145 
     4626.145      4626.145      4626.145      4626.145      4626.145      4626.145 
     4626.145      4626.145      4626.145      4626.145      4626.145      4626.145 
     4626.145      4626.145 
     4626.145      4626.145      4626.145      4626.145      4626.145      4626.145 
     4626.145      4626.145      4626.145      4626.145      4626.145      4626.145 
     4626.145      4626.145      4626.145      4626.145      4626.145      4626.145 
     4626.145      4626.145      4626.145      4626.145      4626.145      4626.145 
     4626.145      4626.145      4626.145      4626.145      4626.145      4626.145 
     4626.145      4626.145      4626.145      4626.145      4626.145      4626.145 
     4626.145      4626.145      4626.145      4626.145      4626.145      4626.145 
     4626.145      4626.145      4626.145      4626.145      4626.145      4626.145 
     4626.145      4626.145      4626.145      4626.145      4626.145      4626.145 
     4626.145      4626.145      4626.145      4626.145      4626.145      4626.145 
     4626.145      4626.145      4626.145      4626.145      4626.145      4626.145 
     4626.145      4626.145      4626.145      4626.145      4626.145      4626.145 
     4626.145      4626.145      4626.145      4626.145      4626.145      4626.145 
     4626.145      4626.145      4626.145      4626.145      4626.145      4626.145 
     4626.145      4626.145 
     4656.145      4656.145      4656.145      4656.145      4656.145      4656.145 
     4656.145      4656.145      4656.145      4656.145      4656.145      4656.145 
     4656.145      4656.145      4656.145      4656.145      4656.145      4656.145 
     4656.145      4656.145      4656.145      4656.145      4656.145      4656.145 
     4656.145      4656.145      4656.145      4656.145      4656.145      4656.145 
     4656.145      4656.145      4656.145      4656.145      4656.145      4656.145 
     4656.145      4656.145      4656.145      4656.145      4656.145      4656.145 
     4656.145      4656.145      4656.145      4656.145      4656.145      4656.145 
     4656.145      4656.145      4656.145      4656.145      4656.145      4656.145 
     4656.145      4656.145      4656.145      4656.145      4656.145      4656.145 
     4656.145      4656.145      4656.145      4656.145      4656.145      4656.145 
     4656.145      4656.145      4656.145      4656.145      4656.145      4656.145 
     4656.145      4656.145      4656.145      4656.145      4656.145      4656.145 
     4656.145      4656.145      4656.145      4656.145      4656.145      4656.145 
     4656.145      4656.145 
     4656.145      4656.145      4656.145      4656.145      4656.145      4656.145 
     4656.145      4656.145      4656.145      4656.145      4656.145      4656.145 
     4656.145      4656.145      4656.145      4656.145      4656.145      4656.145 
     4656.145      4656.145      4656.145      4656.145      4656.145      4656.145 
     4656.145      4656.145      4656.145      4656.145      4656.145      4656.145 
     4656.145      4656.145      4656.145      4656.145      4656.145      4656.145 
     4656.145      4656.145      4656.145      4656.145      4656.145      4656.145 
     4656.145      4656.145      4656.145      4656.145      4656.145      4656.145 
     4656.145      4656.145      4656.145      4656.145      4656.145      4656.145 
     4656.145      4656.145      4656.145      4656.145      4656.145      4656.145 
     4656.145      4656.145      4656.145      4656.145      4656.145      4656.145 
     4656.145      4656.145      4656.145      4656.145      4656.145      4656.145 
     4656.145      4656.145      4656.145      4656.145      4656.145      4656.145 
     4656.145      4656.145      4656.145      4656.145      4656.145      4656.145 
     4656.145      4656.145 
/ 
  
