SPECGRID
 3 2 3 1 F / 

COORD
  2000.0000  2000.0000  2000.0000   2000.0000  2000.0000  2009.0000 
  2100.0000  2000.0000  2000.0000   2100.0000  2000.0000  2009.0000 
  2200.0000  2000.0000  2000.0000   2200.0000  2000.0000  2009.0000 
  2300.0000  2000.0000  2000.0000   2300.0000  2000.0000  2009.0000 
  2000.0000  2100.0000  2000.0000   2000.0000  2100.0000  2009.0000 
  2100.0000  2100.0000  2000.0000   2100.0000  2100.0000  2009.0000 
  2200.0000  2100.0000  2000.0000   2200.0000  2100.0000  2009.0000 
  2300.0000  2100.0000  2000.0000   2300.0000  2100.0000  2009.0000 
  2000.0000  2200.0000  2000.0000   2000.0000  2200.0000  2009.0000 
  2100.0000  2200.0000  2000.0000   2100.0000  2200.0000  2009.0000 
  2200.0000  2200.0000  2000.0000   2200.0000  2200.0000  2009.0000 
  2300.0000  2200.0000  2000.0000   2300.0000  2200.0000  2009.0000 
/ 

ZCORN
  2000.0000  2000.0000  2000.0000  2000.0000  2000.0000  2000.0000
  2000.0000  2000.0000  2000.0000  2000.0000  2000.0000  2000.0000
  2000.0000  2000.0000  2000.0000  2000.0000  2000.0000  2000.0000
  2000.0000  2000.0000  2000.0000  2000.0000  2000.0000  2000.0000
  2002.5000  2002.5000  2002.5000  2002.5000  2002.5000  2002.5000
  2002.5000  2002.5000  2002.5000  2002.5000  2002.5000  2002.5000
  2002.5000  2002.5000  2002.5000  2002.5000  2002.5000  2002.5000
  2002.5000  2002.5000  2002.5000  2002.5000  2002.5000  2002.5000
  2002.5000  2002.5000  2002.5000  2002.5000  2002.5000  2002.5000
  2002.5000  2002.5000  2002.5000  2002.5000  2002.5000  2002.5000
  2002.5000  2002.5000  2002.5000  2002.5000  2002.5000  2002.5000
  2002.5000  2002.5000  2002.5000  2002.5000  2002.5000  2002.5000
  2005.5000  2005.5000  2005.5000  2005.5000  2005.5000  2005.5000
  2005.5000  2005.5000  2005.5000  2005.5000  2005.5000  2005.5000
  2005.5000  2005.5000  2005.5000  2005.5000  2005.5000  2005.5000
  2005.5000  2005.5000  2005.5000  2005.5000  2005.5000  2005.5000
  2005.5000  2005.5000  2005.5000  2005.5000  2005.5000  2005.5000
  2005.5000  2005.5000  2005.5000  2005.5000  2005.5000  2005.5000
  2005.5000  2005.5000  2005.5000  2005.5000  2005.5000  2005.5000
  2005.5000  2005.5000  2005.5000  2005.5000  2005.5000  2005.5000
  2009.0000  2009.0000  2009.0000  2009.0000  2009.0000  2009.0000
  2009.0000  2009.0000  2009.0000  2009.0000  2009.0000  2009.0000
  2009.0000  2009.0000  2009.0000  2009.0000  2009.0000  2009.0000
  2009.0000  2009.0000  2009.0000  2009.0000  2009.0000  2009.0000
 / 
