SPECGRID
 12 15 5 1 F / 

COORD
  2000.0000  2000.0000  2000.0000   1999.9686  1999.9293  2017.4974 
  2099.9976  2000.0000  2000.6981   2099.9661  1999.9293  2018.1955 
  2199.9951  2000.0000  2001.3963   2199.9637  1999.9293  2018.8937 
  2299.9927  2000.0000  2002.0944   2299.9613  1999.9293  2019.5918 
  2399.9903  2000.0000  2002.7925   2399.9588  1999.9293  2020.2899 
  2499.9878  2000.0000  2003.4906   2499.9564  1999.9293  2020.9880 
  2599.9854  2000.0000  2005.6888   2599.9540  1999.9293  2023.1862 
  2699.9829  2000.0000  2006.3869   2699.9515  1999.9293  2023.8843 
  2799.9805  2000.0000  2008.2850   2799.9491  1999.9293  2025.7824 
  2899.9781  2000.0000  2008.9831   2899.9467  1999.9293  2026.4805 
  2999.9756  2000.0000  2009.6813   2999.9442  1999.9293  2027.1787 
  3099.9732  2000.0000  2010.3794   3099.9418  1999.9293  2027.8768 
  3199.9708  2000.0000  2011.0775   3199.9393  1999.9293  2028.5749 
  2000.0000  2099.9877  2001.5707   1999.9686  2099.9170  2019.0681 
  2099.9976  2099.9877  2002.2689   2099.9661  2099.9170  2019.7663 
  2199.9951  2099.9877  2002.9670   2199.9637  2099.9170  2020.4644 
  2299.9927  2099.9877  2003.6651   2299.9613  2099.9170  2021.1625 
  2399.9903  2099.9877  2004.3632   2399.9588  2099.9170  2021.8607 
  2499.9878  2099.9877  2005.0614   2499.9564  2099.9170  2022.5588 
  2599.9854  2099.9877  2007.2595   2599.9540  2099.9170  2024.7569 
  2699.9829  2099.9877  2007.9576   2699.9515  2099.9170  2025.4550 
  2799.9805  2099.9877  2009.8557   2799.9491  2099.9170  2027.3532 
  2899.9781  2099.9877  2010.5539   2899.9467  2099.9170  2028.0513 
  2999.9756  2099.9877  2011.2520   2999.9442  2099.9170  2028.7494 
  3099.9732  2099.9877  2011.9501   3099.9418  2099.9170  2029.4475 
  3199.9708  2099.9877  2012.6482   3199.9393  2099.9170  2030.1457 
  2000.0000  2199.9753  2003.1415   1999.9686  2199.9046  2020.6389 
  2099.9976  2199.9753  2003.8396   2099.9661  2199.9046  2021.3370 
  2199.9951  2199.9753  2004.5377   2199.9637  2199.9046  2022.0351 
  2299.9927  2199.9753  2005.2358   2299.9613  2199.9046  2022.7333 
  2399.9903  2199.9753  2005.9340   2399.9588  2199.9046  2023.4314 
  2499.9878  2199.9753  2006.6321   2499.9564  2199.9046  2024.1295 
  2599.9854  2199.9753  2008.8302   2599.9540  2199.9046  2026.3276 
  2699.9829  2199.9753  2009.5283   2699.9515  2199.9046  2027.0258 
  2799.9805  2199.9753  2011.4265   2799.9491  2199.9046  2028.9239 
  2899.9781  2199.9753  2012.1246   2899.9467  2199.9046  2029.6220 
  2999.9756  2199.9753  2012.8227   2999.9442  2199.9046  2030.3201 
  3099.9732  2199.9753  2013.5208   3099.9418  2199.9046  2031.0183 
  3199.9708  2199.9753  2014.2190   3199.9393  2199.9046  2031.7164 
  2000.0000  2299.9630  2004.7122   1999.9686  2299.8923  2022.2096 
  2099.9976  2299.9630  2005.4103   2099.9661  2299.8923  2022.9077 
  2199.9951  2299.9630  2006.1084   2199.9637  2299.8923  2023.6059 
  2299.9927  2299.9630  2006.8066   2299.9613  2299.8923  2024.3040 
  2399.9903  2299.9630  2007.5047   2399.9588  2299.8923  2025.0021 
  2499.9878  2299.9630  2008.2028   2499.9564  2299.8923  2025.7002 
  2599.9854  2299.9630  2010.4010   2599.9540  2299.8923  2027.8984 
  2699.9829  2299.9630  2011.0991   2699.9515  2299.8923  2028.5965 
  2799.9805  2299.9630  2012.9972   2799.9491  2299.8923  2030.4946 
  2899.9781  2299.9630  2013.6953   2899.9467  2299.8923  2031.1927 
  2999.9756  2299.9630  2014.3935   2999.9442  2299.8923  2031.8909 
  3099.9732  2299.9630  2015.0916   3099.9418  2299.8923  2032.5890 
  3199.9708  2299.9630  2015.7897   3199.9393  2299.8923  2033.2871 
  2000.0000  2399.9507  2006.2829   1999.9686  2399.8800  2023.7803 
  2099.9976  2399.9507  2006.9811   2099.9661  2399.8800  2024.4785 
  2199.9951  2399.9507  2007.6792   2199.9637  2399.8800  2025.1766 
  2299.9927  2399.9507  2008.3773   2299.9613  2399.8800  2025.8747 
  2399.9903  2399.9507  2009.0754   2399.9588  2399.8800  2026.5728 
  2499.9878  2399.9507  2009.7736   2499.9564  2399.8800  2027.2710 
  2599.9854  2399.9507  2011.9717   2599.9540  2399.8800  2029.4691 
  2699.9829  2399.9507  2012.6698   2699.9515  2399.8800  2030.1672 
  2799.9805  2399.9507  2014.5679   2799.9491  2399.8800  2032.0653 
  2899.9781  2399.9507  2015.2661   2899.9467  2399.8800  2032.7635 
  2999.9756  2399.9507  2015.9642   2999.9442  2399.8800  2033.4616 
  3099.9732  2399.9507  2016.6623   3099.9418  2399.8800  2034.1597 
  3199.9708  2399.9507  2017.3604   3199.9393  2399.8800  2034.8579 
  2000.0000  2499.9383  2007.8537   1999.9686  2499.8676  2025.3511 
  2099.9976  2499.9383  2008.5518   2099.9661  2499.8676  2026.0492 
  2199.9951  2499.9383  2009.2499   2199.9637  2499.8676  2026.7473 
  2299.9927  2499.9383  2009.9480   2299.9613  2499.8676  2027.4455 
  2399.9903  2499.9383  2010.6462   2399.9588  2499.8676  2028.1436 
  2499.9878  2499.9383  2011.3443   2499.9564  2499.8676  2028.8417 
  2599.9854  2499.9383  2013.5424   2599.9540  2499.8676  2031.0398 
  2699.9829  2499.9383  2014.2405   2699.9515  2499.8676  2031.7380 
  2799.9805  2499.9383  2016.1387   2799.9491  2499.8676  2033.6361 
  2899.9781  2499.9383  2016.8368   2899.9467  2499.8676  2034.3342 
  2999.9756  2499.9383  2017.5349   2999.9442  2499.8676  2035.0323 
  3099.9732  2499.9383  2018.2330   3099.9418  2499.8676  2035.7305 
  3199.9708  2499.9383  2018.9312   3199.9393  2499.8676  2036.4286 
  2000.0000  2599.9260  2009.4244   1999.9686  2599.8553  2026.9218 
  2099.9976  2599.9260  2010.1225   2099.9661  2599.8553  2027.6199 
  2199.9951  2599.9260  2010.8206   2199.9637  2599.8553  2028.3181 
  2299.9927  2599.9260  2011.5188   2299.9613  2599.8553  2029.0162 
  2399.9903  2599.9260  2012.2169   2399.9588  2599.8553  2029.7143 
  2499.9878  2599.9260  2012.9150   2499.9564  2599.8553  2030.4124 
  2599.9854  2599.9260  2015.1131   2599.9540  2599.8553  2032.6106 
  2699.9829  2599.9260  2015.8113   2699.9515  2599.8553  2033.3087 
  2799.9805  2599.9260  2017.7094   2799.9491  2599.8553  2035.2068 
  2899.9781  2599.9260  2018.4075   2899.9467  2599.8553  2035.9049 
  2999.9756  2599.9260  2019.1057   2999.9442  2599.8553  2036.6031 
  3099.9732  2599.9260  2019.8038   3099.9418  2599.8553  2037.3012 
  3199.9708  2599.9260  2020.5019   3199.9393  2599.8553  2037.9993 
  2000.0000  2699.9136  2012.4951   1999.9686  2699.8430  2029.9925 
  2099.9976  2699.9136  2013.1932   2099.9661  2699.8430  2030.6907 
  2199.9951  2699.9136  2013.8914   2199.9637  2699.8430  2031.3888 
  2299.9927  2699.9136  2014.5895   2299.9613  2699.8430  2032.0869 
  2399.9903  2699.9136  2015.2876   2399.9588  2699.8430  2032.7850 
  2499.9878  2699.9136  2015.9858   2499.9564  2699.8430  2033.4832 
  2599.9854  2699.9136  2016.6839   2599.9540  2699.8430  2034.1813 
  2699.9829  2699.9136  2017.3820   2699.9515  2699.8430  2034.8794 
  2799.9805  2699.9136  2019.2801   2799.9491  2699.8430  2036.7775 
  2899.9781  2699.9136  2019.9783   2899.9467  2699.8430  2037.4757 
  2999.9756  2699.9136  2020.6764   2999.9442  2699.8430  2038.1738 
  3099.9732  2699.9136  2021.3745   3099.9418  2699.8430  2038.8719 
  3199.9708  2699.9136  2022.0726   3199.9393  2699.8430  2039.5700 
  2000.0000  2799.9013  2014.0659   1999.9686  2799.8306  2031.5633 
  2099.9976  2799.9013  2014.7640   2099.9661  2799.8306  2032.2614 
  2199.9951  2799.9013  2015.4621   2199.9637  2799.8306  2032.9595 
  2299.9927  2799.9013  2016.1602   2299.9613  2799.8306  2033.6576 
  2399.9903  2799.9013  2016.8584   2399.9588  2799.8306  2034.3558 
  2499.9878  2799.9013  2017.5565   2499.9564  2799.8306  2035.0539 
  2599.9854  2799.9013  2018.2546   2599.9540  2799.8306  2035.7520 
  2699.9829  2799.9013  2018.9527   2699.9515  2799.8306  2036.4502 
  2799.9805  2799.9013  2020.8509   2799.9491  2799.8306  2038.3483 
  2899.9781  2799.9013  2021.5490   2899.9467  2799.8306  2039.0464 
  2999.9756  2799.9013  2022.2471   2999.9442  2799.8306  2039.7445 
  3099.9732  2799.9013  2022.9452   3099.9418  2799.8306  2040.4427 
  3199.9708  2799.9013  2023.6434   3199.9393  2799.8306  2041.1408 
  2000.0000  2899.8890  2015.6366   1999.9686  2899.8183  2033.1340 
  2099.9976  2899.8890  2016.3347   2099.9661  2899.8183  2033.8321 
  2199.9951  2899.8890  2017.0328   2199.9637  2899.8183  2034.5303 
  2299.9927  2899.8890  2017.7310   2299.9613  2899.8183  2035.2284 
  2399.9903  2899.8890  2018.4291   2399.9588  2899.8183  2035.9265 
  2499.9878  2899.8890  2019.1272   2499.9564  2899.8183  2036.6246 
  2599.9854  2899.8890  2019.8253   2599.9540  2899.8183  2037.3228 
  2699.9829  2899.8890  2020.5235   2699.9515  2899.8183  2038.0209 
  2799.9805  2899.8890  2022.4216   2799.9491  2899.8183  2039.9190 
  2899.9781  2899.8890  2023.1197   2899.9467  2899.8183  2040.6171 
  2999.9756  2899.8890  2023.8178   2999.9442  2899.8183  2041.3153 
  3099.9732  2899.8890  2024.5160   3099.9418  2899.8183  2042.0134 
  3199.9708  2899.8890  2025.2141   3199.9393  2899.8183  2042.7115 
  2000.0000  2999.8766  2021.9073   1999.9686  2999.8059  2039.4047 
  2099.9976  2999.8766  2022.6054   2099.9661  2999.8059  2040.1029 
  2199.9951  2999.8766  2023.3036   2199.9637  2999.8059  2040.8010 
  2299.9927  2999.8766  2024.0017   2299.9613  2999.8059  2041.4991 
  2399.9903  2999.8766  2024.6998   2399.9588  2999.8059  2042.1972 
  2499.9878  2999.8766  2025.3979   2499.9564  2999.8059  2042.8954 
  2599.9854  2999.8766  2023.8961   2599.9540  2999.8059  2041.3935 
  2699.9829  2999.8766  2024.5942   2699.9515  2999.8059  2042.0916 
  2799.9805  2999.8766  2025.2923   2799.9491  2999.8059  2042.7897 
  2899.9781  2999.8766  2025.9905   2899.9467  2999.8059  2043.4879 
  2999.9756  2999.8766  2026.6886   2999.9442  2999.8059  2044.1860 
  3099.9732  2999.8766  2027.3867   3099.9418  2999.8059  2044.8841 
  3199.9708  2999.8766  2028.0848   3199.9393  2999.8059  2045.5822 
  2000.0000  3099.8643  2023.4780   1999.9686  3099.7936  2040.9755 
  2099.9976  3099.8643  2024.1762   2099.9661  3099.7936  2041.6736 
  2199.9951  3099.8643  2024.8743   2199.9637  3099.7936  2042.3717 
  2299.9927  3099.8643  2025.5724   2299.9613  3099.7936  2043.0698 
  2399.9903  3099.8643  2026.2706   2399.9588  3099.7936  2043.7680 
  2499.9878  3099.8643  2026.9687   2499.9564  3099.7936  2044.4661 
  2599.9854  3099.8643  2025.4668   2599.9540  3099.7936  2042.9642 
  2699.9829  3099.8643  2026.1649   2699.9515  3099.7936  2043.6623 
  2799.9805  3099.8643  2026.8631   2799.9491  3099.7936  2044.3605 
  2899.9781  3099.8643  2027.5612   2899.9467  3099.7936  2045.0586 
  2999.9756  3099.8643  2028.2593   2999.9442  3099.7936  2045.7567 
  3099.9732  3099.8643  2028.9574   3099.9418  3099.7936  2046.4548 
  3199.9708  3099.8643  2029.6556   3199.9393  3099.7936  2047.1530 
  2000.0000  3199.8520  2025.0488   1999.9686  3199.7813  2042.5462 
  2099.9976  3199.8520  2025.7469   2099.9661  3199.7813  2043.2443 
  2199.9951  3199.8520  2026.4450   2199.9637  3199.7813  2043.9424 
  2299.9927  3199.8520  2027.1432   2299.9613  3199.7813  2044.6406 
  2399.9903  3199.8520  2027.8413   2399.9588  3199.7813  2045.3387 
  2499.9878  3199.8520  2028.5394   2499.9564  3199.7813  2046.0368 
  2599.9854  3199.8520  2027.0375   2599.9540  3199.7813  2044.5350 
  2699.9829  3199.8520  2027.7357   2699.9515  3199.7813  2045.2331 
  2799.9805  3199.8520  2028.4338   2799.9491  3199.7813  2045.9312 
  2899.9781  3199.8520  2029.1319   2899.9467  3199.7813  2046.6293 
  2999.9756  3199.8520  2029.8300   2999.9442  3199.7813  2047.3275 
  3099.9732  3199.8520  2030.5282   3099.9418  3199.7813  2048.0256 
  3199.9708  3199.8520  2031.2263   3199.9393  3199.7813  2048.7237 
  2000.0000  3299.8396  2026.6195   1999.9686  3299.7689  2044.1169 
  2099.9976  3299.8396  2027.3176   2099.9661  3299.7689  2044.8151 
  2199.9951  3299.8396  2028.0158   2199.9637  3299.7689  2045.5132 
  2299.9927  3299.8396  2028.7139   2299.9613  3299.7689  2046.2113 
  2399.9903  3299.8396  2029.4120   2399.9588  3299.7689  2046.9094 
  2499.9878  3299.8396  2030.1101   2499.9564  3299.7689  2047.6076 
  2599.9854  3299.8396  2028.6083   2599.9540  3299.7689  2046.1057 
  2699.9829  3299.8396  2029.3064   2699.9515  3299.7689  2046.8038 
  2799.9805  3299.8396  2030.0045   2799.9491  3299.7689  2047.5019 
  2899.9781  3299.8396  2030.7026   2899.9467  3299.7689  2048.2001 
  2999.9756  3299.8396  2031.4008   2999.9442  3299.7689  2048.8982 
  3099.9732  3299.8396  2032.0989   3099.9418  3299.7689  2049.5963 
  3199.9708  3299.8396  2032.7970   3199.9393  3299.7689  2050.2944 
  2000.0000  3399.8273  2028.1902   1999.9686  3399.7566  2045.6877 
  2099.9976  3399.8273  2028.8884   2099.9661  3399.7566  2046.3858 
  2199.9951  3399.8273  2029.5865   2199.9637  3399.7566  2047.0839 
  2299.9927  3399.8273  2030.2846   2299.9613  3399.7566  2047.7820 
  2399.9903  3399.8273  2030.9827   2399.9588  3399.7566  2048.4802 
  2499.9878  3399.8273  2031.6809   2499.9564  3399.7566  2049.1783 
  2599.9854  3399.8273  2030.1790   2599.9540  3399.7566  2047.6764 
  2699.9829  3399.8273  2030.8771   2699.9515  3399.7566  2048.3745 
  2799.9805  3399.8273  2031.5753   2799.9491  3399.7566  2049.0727 
  2899.9781  3399.8273  2032.2734   2899.9467  3399.7566  2049.7708 
  2999.9756  3399.8273  2032.9715   2999.9442  3399.7566  2050.4689 
  3099.9732  3399.8273  2033.6696   3099.9418  3399.7566  2051.1670 
  3199.9708  3399.8273  2034.3678   3199.9393  3399.7566  2051.8652 
  2000.0000  3499.8149  2029.7610   1999.9686  3499.7443  2047.2584 
  2099.9976  3499.8149  2030.4591   2099.9661  3499.7443  2047.9565 
  2199.9951  3499.8149  2031.1572   2199.9637  3499.7443  2048.6546 
  2299.9927  3499.8149  2031.8554   2299.9613  3499.7443  2049.3528 
  2399.9903  3499.8149  2032.5535   2399.9588  3499.7443  2050.0509 
  2499.9878  3499.8149  2033.2516   2499.9564  3499.7443  2050.7490 
  2599.9854  3499.8149  2031.7497   2599.9540  3499.7443  2049.2471 
  2699.9829  3499.8149  2032.4479   2699.9515  3499.7443  2049.9453 
  2799.9805  3499.8149  2033.1460   2799.9491  3499.7443  2050.6434 
  2899.9781  3499.8149  2033.8441   2899.9467  3499.7443  2051.3415 
  2999.9756  3499.8149  2034.5422   2999.9442  3499.7443  2052.0397 
  3099.9732  3499.8149  2035.2404   3099.9418  3499.7443  2052.7378 
  3199.9708  3499.8149  2035.9385   3199.9393  3499.7443  2053.4359 
/ 

ZCORN
  2000.0000  2000.6981  2000.6981  2001.3963  2001.3963  2002.0944
  2002.0944  2002.7925  2002.7925  2003.4906  2003.4906  2004.1888
  2005.6888  2006.3869  2006.3869  2007.0850  2008.2850  2008.9831
  2008.9831  2009.6813  2009.6813  2010.3794  2010.3794  2011.0775
  2001.5707  2002.2689  2002.2689  2002.9670  2002.9670  2003.6651
  2003.6651  2004.3632  2004.3632  2005.0614  2005.0614  2005.7595
  2007.2595  2007.9576  2007.9576  2008.6557  2009.8557  2010.5539
  2010.5539  2011.2520  2011.2520  2011.9501  2011.9501  2012.6482
  2001.5707  2002.2689  2002.2689  2002.9670  2002.9670  2003.6651
  2003.6651  2004.3632  2004.3632  2005.0614  2005.0614  2005.7595
  2007.2595  2007.9576  2007.9576  2008.6557  2009.8557  2010.5539
  2010.5539  2011.2520  2011.2520  2011.9501  2011.9501  2012.6482
  2003.1415  2003.8396  2003.8396  2004.5377  2004.5377  2005.2358
  2005.2358  2005.9340  2005.9340  2006.6321  2006.6321  2007.3302
  2008.8302  2009.5283  2009.5283  2010.2265  2011.4265  2012.1246
  2012.1246  2012.8227  2012.8227  2013.5208  2013.5208  2014.2190
  2003.1415  2003.8396  2003.8396  2004.5377  2004.5377  2005.2358
  2005.2358  2005.9340  2005.9340  2006.6321  2006.6321  2007.3302
  2008.8302  2009.5283  2009.5283  2010.2265  2011.4265  2012.1246
  2012.1246  2012.8227  2012.8227  2013.5208  2013.5208  2014.2190
  2004.7122  2005.4103  2005.4103  2006.1084  2006.1084  2006.8066
  2006.8066  2007.5047  2007.5047  2008.2028  2008.2028  2008.9010
  2010.4010  2011.0991  2011.0991  2011.7972  2012.9972  2013.6953
  2013.6953  2014.3935  2014.3935  2015.0916  2015.0916  2015.7897
  2004.7122  2005.4103  2005.4103  2006.1084  2006.1084  2006.8066
  2006.8066  2007.5047  2007.5047  2008.2028  2008.2028  2008.9010
  2010.4010  2011.0991  2011.0991  2011.7972  2012.9972  2013.6953
  2013.6953  2014.3935  2014.3935  2015.0916  2015.0916  2015.7897
  2006.2829  2006.9811  2006.9811  2007.6792  2007.6792  2008.3773
  2008.3773  2009.0754  2009.0754  2009.7736  2009.7736  2010.4717
  2011.9717  2012.6698  2012.6698  2013.3679  2014.5679  2015.2661
  2015.2661  2015.9642  2015.9642  2016.6623  2016.6623  2017.3604
  2006.2829  2006.9811  2006.9811  2007.6792  2007.6792  2008.3773
  2008.3773  2009.0754  2009.0754  2009.7736  2009.7736  2010.4717
  2011.9717  2012.6698  2012.6698  2013.3679  2014.5679  2015.2661
  2015.2661  2015.9642  2015.9642  2016.6623  2016.6623  2017.3604
  2007.8537  2008.5518  2008.5518  2009.2499  2009.2499  2009.9480
  2009.9480  2010.6462  2010.6462  2011.3443  2011.3443  2012.0424
  2013.5424  2014.2405  2014.2405  2014.9387  2016.1387  2016.8368
  2016.8368  2017.5349  2017.5349  2018.2330  2018.2330  2018.9312
  2007.8537  2008.5518  2008.5518  2009.2499  2009.2499  2009.9480
  2009.9480  2010.6462  2010.6462  2011.3443  2011.3443  2012.0424
  2013.5424  2014.2405  2014.2405  2014.9387  2016.1387  2016.8368
  2016.8368  2017.5349  2017.5349  2018.2330  2018.2330  2018.9312
  2009.4244  2010.1225  2010.1225  2010.8206  2010.8206  2011.5188
  2011.5188  2012.2169  2012.2169  2012.9150  2012.9150  2013.6131
  2015.1131  2015.8113  2015.8113  2016.5094  2017.7094  2018.4075
  2018.4075  2019.1057  2019.1057  2019.8038  2019.8038  2020.5019
  2009.4244  2010.1225  2010.1225  2010.8206  2010.8206  2011.5188
  2011.5188  2012.2169  2012.2169  2012.9150  2012.9150  2013.6131
  2015.1131  2015.8113  2015.8113  2016.5094  2017.7094  2018.4075
  2018.4075  2019.1057  2019.1057  2019.8038  2019.8038  2020.5019
  2010.9951  2011.6932  2011.6932  2012.3914  2012.3914  2013.0895
  2013.0895  2013.7876  2013.7876  2014.4858  2014.4858  2015.1839
  2016.6839  2017.3820  2017.3820  2018.0801  2019.2801  2019.9783
  2019.9783  2020.6764  2020.6764  2021.3745  2021.3745  2022.0726
  2012.4951  2013.1932  2013.1932  2013.8914  2013.8914  2014.5895
  2014.5895  2015.2876  2015.2876  2015.9858  2015.9858  2016.6839
  2016.6839  2017.3820  2017.3820  2018.0801  2019.2801  2019.9783
  2019.9783  2020.6764  2020.6764  2021.3745  2021.3745  2022.0726
  2014.0659  2014.7640  2014.7640  2015.4621  2015.4621  2016.1602
  2016.1602  2016.8584  2016.8584  2017.5565  2017.5565  2018.2546
  2018.2546  2018.9527  2018.9527  2019.6509  2020.8509  2021.5490
  2021.5490  2022.2471  2022.2471  2022.9452  2022.9452  2023.6434
  2014.0659  2014.7640  2014.7640  2015.4621  2015.4621  2016.1602
  2016.1602  2016.8584  2016.8584  2017.5565  2017.5565  2018.2546
  2018.2546  2018.9527  2018.9527  2019.6509  2020.8509  2021.5490
  2021.5490  2022.2471  2022.2471  2022.9452  2022.9452  2023.6434
  2015.6366  2016.3347  2016.3347  2017.0328  2017.0328  2017.7310
  2017.7310  2018.4291  2018.4291  2019.1272  2019.1272  2019.8253
  2019.8253  2020.5235  2020.5235  2021.2216  2022.4216  2023.1197
  2023.1197  2023.8178  2023.8178  2024.5160  2024.5160  2025.2141
  2015.6366  2016.3347  2016.3347  2017.0328  2017.0328  2017.7310
  2017.7310  2018.4291  2018.4291  2019.1272  2019.1272  2019.8253
  2019.8253  2020.5235  2020.5235  2021.2216  2022.4216  2023.1197
  2023.1197  2023.8178  2023.8178  2024.5160  2024.5160  2025.2141
  2017.2073  2017.9054  2017.9054  2018.6036  2018.6036  2019.3017
  2019.3017  2019.9998  2019.9998  2020.6979  2020.6979  2021.3961
  2021.3961  2022.0942  2022.0942  2022.7923  2023.9923  2024.6905
  2024.6905  2025.3886  2025.3886  2026.0867  2026.0867  2026.7848
  2021.9073  2022.6054  2022.6054  2023.3036  2023.3036  2024.0017
  2024.0017  2024.6998  2024.6998  2025.3979  2025.3979  2026.0961
  2023.8961  2024.5942  2024.5942  2025.2923  2025.2923  2025.9905
  2025.9905  2026.6886  2026.6886  2027.3867  2027.3867  2028.0848
  2023.4780  2024.1762  2024.1762  2024.8743  2024.8743  2025.5724
  2025.5724  2026.2706  2026.2706  2026.9687  2026.9687  2027.6668
  2025.4668  2026.1649  2026.1649  2026.8631  2026.8631  2027.5612
  2027.5612  2028.2593  2028.2593  2028.9574  2028.9574  2029.6556
  2023.4780  2024.1762  2024.1762  2024.8743  2024.8743  2025.5724
  2025.5724  2026.2706  2026.2706  2026.9687  2026.9687  2027.6668
  2025.4668  2026.1649  2026.1649  2026.8631  2026.8631  2027.5612
  2027.5612  2028.2593  2028.2593  2028.9574  2028.9574  2029.6556
  2025.0488  2025.7469  2025.7469  2026.4450  2026.4450  2027.1432
  2027.1432  2027.8413  2027.8413  2028.5394  2028.5394  2029.2375
  2027.0375  2027.7357  2027.7357  2028.4338  2028.4338  2029.1319
  2029.1319  2029.8300  2029.8300  2030.5282  2030.5282  2031.2263
  2025.0488  2025.7469  2025.7469  2026.4450  2026.4450  2027.1432
  2027.1432  2027.8413  2027.8413  2028.5394  2028.5394  2029.2375
  2027.0375  2027.7357  2027.7357  2028.4338  2028.4338  2029.1319
  2029.1319  2029.8300  2029.8300  2030.5282  2030.5282  2031.2263
  2026.6195  2027.3176  2027.3176  2028.0158  2028.0158  2028.7139
  2028.7139  2029.4120  2029.4120  2030.1101  2030.1101  2030.8083
  2028.6083  2029.3064  2029.3064  2030.0045  2030.0045  2030.7026
  2030.7026  2031.4008  2031.4008  2032.0989  2032.0989  2032.7970
  2026.6195  2027.3176  2027.3176  2028.0158  2028.0158  2028.7139
  2028.7139  2029.4120  2029.4120  2030.1101  2030.1101  2030.8083
  2028.6083  2029.3064  2029.3064  2030.0045  2030.0045  2030.7026
  2030.7026  2031.4008  2031.4008  2032.0989  2032.0989  2032.7970
  2028.1902  2028.8884  2028.8884  2029.5865  2029.5865  2030.2846
  2030.2846  2030.9827  2030.9827  2031.6809  2031.6809  2032.3790
  2030.1790  2030.8771  2030.8771  2031.5753  2031.5753  2032.2734
  2032.2734  2032.9715  2032.9715  2033.6696  2033.6696  2034.3678
  2028.1902  2028.8884  2028.8884  2029.5865  2029.5865  2030.2846
  2030.2846  2030.9827  2030.9827  2031.6809  2031.6809  2032.3790
  2030.1790  2030.8771  2030.8771  2031.5753  2031.5753  2032.2734
  2032.2734  2032.9715  2032.9715  2033.6696  2033.6696  2034.3678
  2029.7610  2030.4591  2030.4591  2031.1572  2031.1572  2031.8554
  2031.8554  2032.5535  2032.5535  2033.2516  2033.2516  2033.9497
  2031.7497  2032.4479  2032.4479  2033.1460  2033.1460  2033.8441
  2033.8441  2034.5422  2034.5422  2035.2404  2035.2404  2035.9385
  2002.4996  2003.1978  2003.1978  2003.8959  2003.8959  2004.5940
  2004.5940  2005.2921  2005.2921  2005.9903  2005.9903  2006.6884
  2008.1884  2008.8865  2008.8865  2009.5846  2010.7846  2011.4828
  2011.4828  2012.1809  2012.1809  2012.8790  2012.8790  2013.5771
  2004.0704  2004.7685  2004.7685  2005.4666  2005.4666  2006.1647
  2006.1647  2006.8629  2006.8629  2007.5610  2007.5610  2008.2591
  2009.7591  2010.4572  2010.4572  2011.1554  2012.3554  2013.0535
  2013.0535  2013.7516  2013.7516  2014.4497  2014.4497  2015.1479
  2004.0704  2004.7685  2004.7685  2005.4666  2005.4666  2006.1647
  2006.1647  2006.8629  2006.8629  2007.5610  2007.5610  2008.2591
  2009.7591  2010.4572  2010.4572  2011.1554  2012.3554  2013.0535
  2013.0535  2013.7516  2013.7516  2014.4497  2014.4497  2015.1479
  2005.6411  2006.3392  2006.3392  2007.0373  2007.0373  2007.7355
  2007.7355  2008.4336  2008.4336  2009.1317  2009.1317  2009.8299
  2011.3299  2012.0280  2012.0280  2012.7261  2013.9261  2014.6242
  2014.6242  2015.3224  2015.3224  2016.0205  2016.0205  2016.7186
  2005.6411  2006.3392  2006.3392  2007.0373  2007.0373  2007.7355
  2007.7355  2008.4336  2008.4336  2009.1317  2009.1317  2009.8299
  2011.3299  2012.0280  2012.0280  2012.7261  2013.9261  2014.6242
  2014.6242  2015.3224  2015.3224  2016.0205  2016.0205  2016.7186
  2007.2118  2007.9100  2007.9100  2008.6081  2008.6081  2009.3062
  2009.3062  2010.0043  2010.0043  2010.7025  2010.7025  2011.4006
  2012.9006  2013.5987  2013.5987  2014.2968  2015.4968  2016.1950
  2016.1950  2016.8931  2016.8931  2017.5912  2017.5912  2018.2893
  2007.2118  2007.9100  2007.9100  2008.6081  2008.6081  2009.3062
  2009.3062  2010.0043  2010.0043  2010.7025  2010.7025  2011.4006
  2012.9006  2013.5987  2013.5987  2014.2968  2015.4968  2016.1950
  2016.1950  2016.8931  2016.8931  2017.5912  2017.5912  2018.2893
  2008.7826  2009.4807  2009.4807  2010.1788  2010.1788  2010.8769
  2010.8769  2011.5751  2011.5751  2012.2732  2012.2732  2012.9713
  2014.4713  2015.1694  2015.1694  2015.8676  2017.0676  2017.7657
  2017.7657  2018.4638  2018.4638  2019.1619  2019.1619  2019.8601
  2008.7826  2009.4807  2009.4807  2010.1788  2010.1788  2010.8769
  2010.8769  2011.5751  2011.5751  2012.2732  2012.2732  2012.9713
  2014.4713  2015.1694  2015.1694  2015.8676  2017.0676  2017.7657
  2017.7657  2018.4638  2018.4638  2019.1619  2019.1619  2019.8601
  2010.3533  2011.0514  2011.0514  2011.7495  2011.7495  2012.4477
  2012.4477  2013.1458  2013.1458  2013.8439  2013.8439  2014.5420
  2016.0420  2016.7402  2016.7402  2017.4383  2018.6383  2019.3364
  2019.3364  2020.0345  2020.0345  2020.7327  2020.7327  2021.4308
  2010.3533  2011.0514  2011.0514  2011.7495  2011.7495  2012.4477
  2012.4477  2013.1458  2013.1458  2013.8439  2013.8439  2014.5420
  2016.0420  2016.7402  2016.7402  2017.4383  2018.6383  2019.3364
  2019.3364  2020.0345  2020.0345  2020.7327  2020.7327  2021.4308
  2011.9240  2012.6221  2012.6221  2013.3203  2013.3203  2014.0184
  2014.0184  2014.7165  2014.7165  2015.4147  2015.4147  2016.1128
  2017.6128  2018.3109  2018.3109  2019.0090  2020.2090  2020.9072
  2020.9072  2021.6053  2021.6053  2022.3034  2022.3034  2023.0015
  2011.9240  2012.6221  2012.6221  2013.3203  2013.3203  2014.0184
  2014.0184  2014.7165  2014.7165  2015.4147  2015.4147  2016.1128
  2017.6128  2018.3109  2018.3109  2019.0090  2020.2090  2020.9072
  2020.9072  2021.6053  2021.6053  2022.3034  2022.3034  2023.0015
  2013.4948  2014.1929  2014.1929  2014.8910  2014.8910  2015.5891
  2015.5891  2016.2873  2016.2873  2016.9854  2016.9854  2017.6835
  2019.1835  2019.8816  2019.8816  2020.5798  2021.7798  2022.4779
  2022.4779  2023.1760  2023.1760  2023.8741  2023.8741  2024.5723
  2014.9948  2015.6929  2015.6929  2016.3910  2016.3910  2017.0891
  2017.0891  2017.7873  2017.7873  2018.4854  2018.4854  2019.1835
  2019.1835  2019.8816  2019.8816  2020.5798  2021.7798  2022.4779
  2022.4779  2023.1760  2023.1760  2023.8741  2023.8741  2024.5723
  2016.5655  2017.2636  2017.2636  2017.9617  2017.9617  2018.6599
  2018.6599  2019.3580  2019.3580  2020.0561  2020.0561  2020.7542
  2020.7542  2021.4524  2021.4524  2022.1505  2023.3505  2024.0486
  2024.0486  2024.7467  2024.7467  2025.4449  2025.4449  2026.1430
  2016.5655  2017.2636  2017.2636  2017.9617  2017.9617  2018.6599
  2018.6599  2019.3580  2019.3580  2020.0561  2020.0561  2020.7542
  2020.7542  2021.4524  2021.4524  2022.1505  2023.3505  2024.0486
  2024.0486  2024.7467  2024.7467  2025.4449  2025.4449  2026.1430
  2018.1362  2018.8343  2018.8343  2019.5325  2019.5325  2020.2306
  2020.2306  2020.9287  2020.9287  2021.6268  2021.6268  2022.3250
  2022.3250  2023.0231  2023.0231  2023.7212  2024.9212  2025.6194
  2025.6194  2026.3175  2026.3175  2027.0156  2027.0156  2027.7137
  2018.1362  2018.8343  2018.8343  2019.5325  2019.5325  2020.2306
  2020.2306  2020.9287  2020.9287  2021.6268  2021.6268  2022.3250
  2022.3250  2023.0231  2023.0231  2023.7212  2024.9212  2025.6194
  2025.6194  2026.3175  2026.3175  2027.0156  2027.0156  2027.7137
  2019.7069  2020.4051  2020.4051  2021.1032  2021.1032  2021.8013
  2021.8013  2022.4995  2022.4995  2023.1976  2023.1976  2023.8957
  2023.8957  2024.5938  2024.5938  2025.2920  2026.4920  2027.1901
  2027.1901  2027.8882  2027.8882  2028.5863  2028.5863  2029.2845
  2024.4069  2025.1051  2025.1051  2025.8032  2025.8032  2026.5013
  2026.5013  2027.1995  2027.1995  2027.8976  2027.8976  2028.5957
  2026.3957  2027.0938  2027.0938  2027.7920  2027.7920  2028.4901
  2028.4901  2029.1882  2029.1882  2029.8863  2029.8863  2030.5845
  2025.9777  2026.6758  2026.6758  2027.3739  2027.3739  2028.0721
  2028.0721  2028.7702  2028.7702  2029.4683  2029.4683  2030.1664
  2027.9664  2028.6646  2028.6646  2029.3627  2029.3627  2030.0608
  2030.0608  2030.7589  2030.7589  2031.4571  2031.4571  2032.1552
  2025.9777  2026.6758  2026.6758  2027.3739  2027.3739  2028.0721
  2028.0721  2028.7702  2028.7702  2029.4683  2029.4683  2030.1664
  2027.9664  2028.6646  2028.6646  2029.3627  2029.3627  2030.0608
  2030.0608  2030.7589  2030.7589  2031.4571  2031.4571  2032.1552
  2027.5484  2028.2465  2028.2465  2028.9447  2028.9447  2029.6428
  2029.6428  2030.3409  2030.3409  2031.0390  2031.0390  2031.7372
  2029.5372  2030.2353  2030.2353  2030.9334  2030.9334  2031.6315
  2031.6315  2032.3297  2032.3297  2033.0278  2033.0278  2033.7259
  2027.5484  2028.2465  2028.2465  2028.9447  2028.9447  2029.6428
  2029.6428  2030.3409  2030.3409  2031.0390  2031.0390  2031.7372
  2029.5372  2030.2353  2030.2353  2030.9334  2030.9334  2031.6315
  2031.6315  2032.3297  2032.3297  2033.0278  2033.0278  2033.7259
  2029.1191  2029.8173  2029.8173  2030.5154  2030.5154  2031.2135
  2031.2135  2031.9116  2031.9116  2032.6098  2032.6098  2033.3079
  2031.1079  2031.8060  2031.8060  2032.5042  2032.5042  2033.2023
  2033.2023  2033.9004  2033.9004  2034.5985  2034.5985  2035.2967
  2029.1191  2029.8173  2029.8173  2030.5154  2030.5154  2031.2135
  2031.2135  2031.9116  2031.9116  2032.6098  2032.6098  2033.3079
  2031.1079  2031.8060  2031.8060  2032.5042  2032.5042  2033.2023
  2033.2023  2033.9004  2033.9004  2034.5985  2034.5985  2035.2967
  2030.6899  2031.3880  2031.3880  2032.0861  2032.0861  2032.7843
  2032.7843  2033.4824  2033.4824  2034.1805  2034.1805  2034.8786
  2032.6786  2033.3768  2033.3768  2034.0749  2034.0749  2034.7730
  2034.7730  2035.4711  2035.4711  2036.1693  2036.1693  2036.8674