-- This reservoir simulation deck is made available under the Open Database
-- License: http://opendatacommons.org/licenses/odbl/1.0/. Any rights in
-- individual contents of the database are licensed under the Database Contents
-- License: http://opendatacommons.org/licenses/dbcl/1.0/

-- Copyright (C) 2023 Equinor


SPECGRID
 8 9 7 1 F / 

COORD
  2000.0000  2000.0000  2000.0000   1999.9302  1999.8953  2024.9876 
  2099.9848  2000.0000  2001.7452   2099.9150  1999.8953  2026.7329 
  2199.9695  2000.0000  2003.4905   2199.8997  1999.8953  2028.4781 
  2299.9543  2000.0000  2005.2357   2299.8845  1999.8953  2030.2233 
  2399.9391  2000.0000  2006.9810   2399.8693  1999.8953  2031.9686 
  2499.9238  2000.0000  2008.7262   2499.8540  1999.8953  2033.7138 
  2599.9086  2000.0000  2010.4714   2599.8388  1999.8953  2035.4591 
  2699.8934  2000.0000  2012.2167   2699.8236  1999.8953  2037.2043 
  2799.8782  2000.0000  2013.9619   2799.8083  1999.8953  2038.9496 
  2000.0000  2099.9657  2002.6177   1999.9302  2099.8610  2027.6053 
  2099.9848  2099.9657  2004.3629   2099.9150  2099.8610  2029.3506 
  2199.9695  2099.9657  2006.1082   2199.8997  2099.8610  2031.0958 
  2299.9543  2099.9657  2007.8534   2299.8845  2099.8610  2032.8410 
  2399.9391  2099.9657  2009.5987   2399.8693  2099.8610  2034.5863 
  2499.9238  2099.9657  2011.3439   2499.8540  2099.8610  2036.3315 
  2599.9086  2099.9657  2013.0891   2599.8388  2099.8610  2038.0768 
  2699.8934  2099.9657  2014.8344   2699.8236  2099.8610  2039.8220 
  2799.8782  2099.9657  2016.5796   2799.8083  2099.8610  2041.5672 
  2000.0000  2199.9315  2005.2354   1999.9302  2199.8268  2030.2230 
  2099.9848  2199.9315  2006.9806   2099.9150  2199.8268  2031.9683 
  2199.9695  2199.9315  2008.7259   2199.8997  2199.8268  2033.7135 
  2299.9543  2199.9315  2010.4711   2299.8845  2199.8268  2035.4587 
  2399.9391  2199.9315  2012.2164   2399.8693  2199.8268  2037.2040 
  2499.9238  2199.9315  2013.9616   2499.8540  2199.8268  2038.9492 
  2599.9086  2199.9315  2015.7068   2599.8388  2199.8268  2040.6945 
  2699.8934  2199.9315  2017.4521   2699.8236  2199.8268  2042.4397 
  2799.8782  2199.9315  2019.1973   2799.8083  2199.8268  2044.1849 
  2000.0000  2299.8972  2007.8531   1999.9302  2299.7925  2032.8407 
  2099.9848  2299.8972  2009.5983   2099.9150  2299.7925  2034.5860 
  2199.9695  2299.8972  2011.3436   2199.8997  2299.7925  2036.3312 
  2299.9543  2299.8972  2013.0888   2299.8845  2299.7925  2038.0764 
  2399.9391  2299.8972  2014.8340   2399.8693  2299.7925  2039.8217 
  2499.9238  2299.8972  2016.5793   2499.8540  2299.7925  2041.5669 
  2599.9086  2299.8972  2018.3245   2599.8388  2299.7925  2043.3122 
  2699.8934  2299.8972  2020.0698   2699.8236  2299.7925  2045.0574 
  2799.8782  2299.8972  2021.8150   2799.8083  2299.7925  2046.8026 
  2000.0000  2399.8629  2010.4708   1999.9302  2399.7582  2035.4584 
  2099.9848  2399.8629  2012.2160   2099.9150  2399.7582  2037.2036 
  2199.9695  2399.8629  2013.9613   2199.8997  2399.7582  2038.9489 
  2299.9543  2399.8629  2015.7065   2299.8845  2399.7582  2040.6941 
  2399.9391  2399.8629  2017.4517   2399.8693  2399.7582  2042.4394 
  2499.9238  2399.8629  2019.1970   2499.8540  2399.7582  2044.1846 
  2599.9086  2399.8629  2020.9422   2599.8388  2399.7582  2045.9298 
  2699.8934  2399.8629  2022.6875   2699.8236  2399.7582  2047.6751 
  2799.8782  2399.8629  2024.4327   2799.8083  2399.7582  2049.4203 
  2000.0000  2499.8287  2013.0885   1999.9302  2499.7240  2038.0761 
  2099.9848  2499.8287  2014.8337   2099.9150  2499.7240  2039.8213 
  2199.9695  2499.8287  2016.5790   2199.8997  2499.7240  2041.5666 
  2299.9543  2499.8287  2018.3242   2299.8845  2499.7240  2043.3118 
  2399.9391  2499.8287  2020.0694   2399.8693  2499.7240  2045.0571 
  2499.9238  2499.8287  2021.8147   2499.8540  2499.7240  2046.8023 
  2599.9086  2499.8287  2023.5599   2599.8388  2499.7240  2048.5475 
  2699.8934  2499.8287  2025.3052   2699.8236  2499.7240  2050.2928 
  2799.8782  2499.8287  2027.0504   2799.8083  2499.7240  2052.0380 
  2000.0000  2599.7944  2015.7062   1999.9302  2599.6897  2040.6938 
  2099.9848  2599.7944  2017.4514   2099.9150  2599.6897  2042.4390 
  2199.9695  2599.7944  2019.1967   2199.8997  2599.6897  2044.1843 
  2299.9543  2599.7944  2020.9419   2299.8845  2599.6897  2045.9295 
  2399.9391  2599.7944  2022.6871   2399.8693  2599.6897  2047.6748 
  2499.9238  2599.7944  2024.4324   2499.8540  2599.6897  2049.4200 
  2599.9086  2599.7944  2026.1776   2599.8388  2599.6897  2051.1652 
  2699.8934  2599.7944  2027.9229   2699.8236  2599.6897  2052.9105 
  2799.8782  2599.7944  2029.6681   2799.8083  2599.6897  2054.6557 
  2000.0000  2699.7601  2018.3239   1999.9302  2699.6554  2043.3115 
  2099.9848  2699.7601  2020.0691   2099.9150  2699.6554  2045.0567 
  2199.9695  2699.7601  2021.8143   2199.8997  2699.6554  2046.8020 
  2299.9543  2699.7601  2023.5596   2299.8845  2699.6554  2048.5472 
  2399.9391  2699.7601  2025.3048   2399.8693  2699.6554  2050.2925 
  2499.9238  2699.7601  2027.0501   2499.8540  2699.6554  2052.0377 
  2599.9086  2699.7601  2028.7953   2599.8388  2699.6554  2053.7829 
  2699.8934  2699.7601  2030.5405   2699.8236  2699.6554  2055.5282 
  2799.8782  2699.7601  2032.2858   2799.8083  2699.6554  2057.2734 
  2000.0000  2799.7259  2020.9416   1999.9302  2799.6212  2045.9292 
  2099.9848  2799.7259  2022.6868   2099.9150  2799.6212  2047.6744 
  2199.9695  2799.7259  2024.4320   2199.8997  2799.6212  2049.4197 
  2299.9543  2799.7259  2026.1773   2299.8845  2799.6212  2051.1649 
  2399.9391  2799.7259  2027.9225   2399.8693  2799.6212  2052.9101 
  2499.9238  2799.7259  2029.6678   2499.8540  2799.6212  2054.6554 
  2599.9086  2799.7259  2031.4130   2599.8388  2799.6212  2056.4006 
  2699.8934  2799.7259  2033.1582   2699.8236  2799.6212  2058.1459 
  2799.8782  2799.7259  2034.9035   2799.8083  2799.6212  2059.8911 
  2000.0000  2899.6916  2023.5593   1999.9302  2899.5869  2048.5469 
  2099.9848  2899.6916  2025.3045   2099.9150  2899.5869  2050.2921 
  2199.9695  2899.6916  2027.0497   2199.8997  2899.5869  2052.0374 
  2299.9543  2899.6916  2028.7950   2299.8845  2899.5869  2053.7826 
  2399.9391  2899.6916  2030.5402   2399.8693  2899.5869  2055.5278 
  2499.9238  2899.6916  2032.2855   2499.8540  2899.5869  2057.2731 
  2599.9086  2899.6916  2034.0307   2599.8388  2899.5869  2059.0183 
  2699.8934  2899.6916  2035.7759   2699.8236  2899.5869  2060.7636 
  2799.8782  2899.6916  2037.5212   2799.8083  2899.5869  2062.5088 
/ 

ZCORN
  2000.0000  2001.7452  2001.7452  2003.4905  2003.4905  2005.2357
  2005.2357  2006.9810  2006.9810  2008.7262  2008.7262  2010.4714
  2010.4714  2012.2167  2012.2167  2013.9619  2002.6177  2004.3629
  2004.3629  2006.1082  2006.1082  2007.8534  2007.8534  2009.5987
  2009.5987  2011.3439  2011.3439  2013.0891  2013.0891  2014.8344
  2014.8344  2016.5796  2002.6177  2004.3629  2004.3629  2006.1082
  2006.1082  2007.8534  2007.8534  2009.5987  2009.5987  2011.3439
  2011.3439  2013.0891  2013.0891  2014.8344  2014.8344  2016.5796
  2005.2354  2006.9806  2006.9806  2008.7259  2008.7259  2010.4711
  2010.4711  2012.2164  2012.2164  2013.9616  2013.9616  2015.7068
  2015.7068  2017.4521  2017.4521  2019.1973  2005.2354  2006.9806
  2006.9806  2008.7259  2008.7259  2010.4711  2010.4711  2012.2164
  2012.2164  2013.9616  2013.9616  2015.7068  2015.7068  2017.4521
  2017.4521  2019.1973  2007.8531  2009.5983  2009.5983  2011.3436
  2011.3436  2013.0888  2013.0888  2014.8340  2014.8340  2016.5793
  2016.5793  2018.3245  2018.3245  2020.0698  2020.0698  2021.8150
  2007.8531  2009.5983  2009.5983  2011.3436  2011.3436  2013.0888
  2013.0888  2014.8340  2014.8340  2016.5793  2016.5793  2018.3245
  2018.3245  2020.0698  2020.0698  2021.8150  2010.4708  2012.2160
  2012.2160  2013.9613  2013.9613  2015.7065  2015.7065  2017.4517
  2017.4517  2019.1970  2019.1970  2020.9422  2020.9422  2022.6875
  2022.6875  2024.4327  2010.4708  2012.2160  2012.2160  2013.9613
  2013.9613  2015.7065  2015.7065  2017.4517  2017.4517  2019.1970
  2019.1970  2020.9422  2020.9422  2022.6875  2022.6875  2024.4327
  2013.0885  2014.8337  2014.8337  2016.5790  2016.5790  2018.3242
  2018.3242  2020.0694  2020.0694  2021.8147  2021.8147  2023.5599
  2023.5599  2025.3052  2025.3052  2027.0504  2013.0885  2014.8337
  2014.8337  2016.5790  2016.5790  2018.3242  2018.3242  2020.0694
  2020.0694  2021.8147  2021.8147  2023.5599  2023.5599  2025.3052
  2025.3052  2027.0504  2015.7062  2017.4514  2017.4514  2019.1967
  2019.1967  2020.9419  2020.9419  2022.6871  2022.6871  2024.4324
  2024.4324  2026.1776  2026.1776  2027.9229  2027.9229  2029.6681
  2015.7062  2017.4514  2017.4514  2019.1967  2019.1967  2020.9419
  2020.9419  2022.6871  2022.6871  2024.4324  2024.4324  2026.1776
  2026.1776  2027.9229  2027.9229  2029.6681  2018.3239  2020.0691
  2020.0691  2021.8143  2021.8143  2023.5596  2023.5596  2025.3048
  2025.3048  2027.0501  2027.0501  2028.7953  2028.7953  2030.5405
  2030.5405  2032.2858  2018.3239  2020.0691  2020.0691  2021.8143
  2021.8143  2023.5596  2023.5596  2025.3048  2025.3048  2027.0501
  2027.0501  2028.7953  2028.7953  2030.5405  2030.5405  2032.2858
  2020.9416  2022.6868  2022.6868  2024.4320  2024.4320  2026.1773
  2026.1773  2027.9225  2027.9225  2029.6678  2029.6678  2031.4130
  2031.4130  2033.1582  2033.1582  2034.9035  2020.9416  2022.6868
  2022.6868  2024.4320  2024.4320  2026.1773  2026.1773  2027.9225
  2027.9225  2029.6678  2029.6678  2031.4130  2031.4130  2033.1582
  2033.1582  2034.9035  2023.5593  2025.3045  2025.3045  2027.0497
  2027.0497  2028.7950  2028.7950  2030.5402  2030.5402  2032.2855
  2032.2855  2034.0307  2034.0307  2035.7759  2035.7759  2037.5212
  2002.4988  2004.2440  2004.2440  2005.9892  2005.9892  2007.7345
  2007.7345  2009.4797  2009.4797  2011.2250  2011.2250  2012.9702
  2012.9702  2014.7154  2014.7154  2016.4607  2005.1165  2006.8617
  2006.8617  2008.6069  2008.6069  2010.3522  2010.3522  2012.0974
  2012.0974  2013.8427  2013.8427  2015.5879  2015.5879  2017.3331
  2017.3331  2019.0784  2005.1165  2006.8617  2006.8617  2008.6069
  2008.6069  2010.3522  2010.3522  2012.0974  2012.0974  2013.8427
  2013.8427  2015.5879  2015.5879  2017.3331  2017.3331  2019.0784
  2007.7342  2009.4794  2009.4794  2011.2246  2011.2246  2012.9699
  2012.9699  2014.7151  2014.7151  2016.4604  2016.4604  2018.2056
  2018.2056  2019.9508  2019.9508  2021.6961  2007.7342  2009.4794
  2009.4794  2011.2246  2011.2246  2012.9699  2012.9699  2014.7151
  2014.7151  2016.4604  2016.4604  2018.2056  2018.2056  2019.9508
  2019.9508  2021.6961  2010.3518  2012.0971  2012.0971  2013.8423
  2013.8423  2015.5876  2015.5876  2017.3328  2017.3328  2019.0781
  2019.0781  2020.8233  2020.8233  2022.5685  2022.5685  2024.3138
  2010.3518  2012.0971  2012.0971  2013.8423  2013.8423  2015.5876
  2015.5876  2017.3328  2017.3328  2019.0781  2019.0781  2020.8233
  2020.8233  2022.5685  2022.5685  2024.3138  2012.9695  2014.7148
  2014.7148  2016.4600  2016.4600  2018.2053  2018.2053  2019.9505
  2019.9505  2021.6957  2021.6957  2023.4410  2023.4410  2025.1862
  2025.1862  2026.9315  2012.9695  2014.7148  2014.7148  2016.4600
  2016.4600  2018.2053  2018.2053  2019.9505  2019.9505  2021.6957
  2021.6957  2023.4410  2023.4410  2025.1862  2025.1862  2026.9315
  2015.5872  2017.3325  2017.3325  2019.0777  2019.0777  2020.8230
  2020.8230  2022.5682  2022.5682  2024.3134  2024.3134  2026.0587
  2026.0587  2027.8039  2027.8039  2029.5492  2015.5872  2017.3325
  2017.3325  2019.0777  2019.0777  2020.8230  2020.8230  2022.5682
  2022.5682  2024.3134  2024.3134  2026.0587  2026.0587  2027.8039
  2027.8039  2029.5492  2018.2049  2019.9502  2019.9502  2021.6954
  2021.6954  2023.4407  2023.4407  2025.1859  2025.1859  2026.9311
  2026.9311  2028.6764  2028.6764  2030.4216  2030.4216  2032.1669
  2018.2049  2019.9502  2019.9502  2021.6954  2021.6954  2023.4407
  2023.4407  2025.1859  2025.1859  2026.9311  2026.9311  2028.6764
  2028.6764  2030.4216  2030.4216  2032.1669  2020.8226  2022.5679
  2022.5679  2024.3131  2024.3131  2026.0583  2026.0583  2027.8036
  2027.8036  2029.5488  2029.5488  2031.2941  2031.2941  2033.0393
  2033.0393  2034.7846  2020.8226  2022.5679  2022.5679  2024.3131
  2024.3131  2026.0583  2026.0583  2027.8036  2027.8036  2029.5488
  2029.5488  2031.2941  2031.2941  2033.0393  2033.0393  2034.7846
  2023.4403  2025.1856  2025.1856  2026.9308  2026.9308  2028.6760
  2028.6760  2030.4213  2030.4213  2032.1665  2032.1665  2033.9118
  2033.9118  2035.6570  2035.6570  2037.4022  2023.4403  2025.1856
  2025.1856  2026.9308  2026.9308  2028.6760  2028.6760  2030.4213
  2030.4213  2032.1665  2032.1665  2033.9118  2033.9118  2035.6570
  2035.6570  2037.4022  2026.0580  2027.8033  2027.8033  2029.5485
  2029.5485  2031.2937  2031.2937  2033.0390  2033.0390  2034.7842
  2034.7842  2036.5295  2036.5295  2038.2747  2038.2747  2040.0199
  2002.4988  2004.2440  2004.2440  2005.9892  2005.9892  2007.7345
  2007.7345  2009.4797  2009.4797  2011.2250  2011.2250  2012.9702
  2012.9702  2014.7154  2014.7154  2016.4607  2005.1165  2006.8617
  2006.8617  2008.6069  2008.6069  2010.3522  2010.3522  2012.0974
  2012.0974  2013.8427  2013.8427  2015.5879  2015.5879  2017.3331
  2017.3331  2019.0784  2005.1165  2006.8617  2006.8617  2008.6069
  2008.6069  2010.3522  2010.3522  2012.0974  2012.0974  2013.8427
  2013.8427  2015.5879  2015.5879  2017.3331  2017.3331  2019.0784
  2007.7342  2009.4794  2009.4794  2011.2246  2011.2246  2012.9699
  2012.9699  2014.7151  2014.7151  2016.4604  2016.4604  2018.2056
  2018.2056  2019.9508  2019.9508  2021.6961  2007.7342  2009.4794
  2009.4794  2011.2246  2011.2246  2012.9699  2012.9699  2014.7151
  2014.7151  2016.4604  2016.4604  2018.2056  2018.2056  2019.9508
  2019.9508  2021.6961  2010.3518  2012.0971  2012.0971  2013.8423
  2013.8423  2015.5876  2015.5876  2017.3328  2017.3328  2019.0781
  2019.0781  2020.8233  2020.8233  2022.5685  2022.5685  2024.3138
  2010.3518  2012.0971  2012.0971  2013.8423  2013.8423  2015.5876
  2015.5876  2017.3328  2017.3328  2019.0781  2019.0781  2020.8233
  2020.8233  2022.5685  2022.5685  2024.3138  2012.9695  2014.7148
  2014.7148  2016.4600  2016.4600  2018.2053  2018.2053  2019.9505
  2019.9505  2021.6957  2021.6957  2023.4410  2023.4410  2025.1862
  2025.1862  2026.9315  2012.9695  2014.7148  2014.7148  2016.4600
  2016.4600  2018.2053  2018.2053  2019.9505  2019.9505  2021.6957
  2021.6957  2023.4410  2023.4410  2025.1862  2025.1862  2026.9315
  2015.5872  2017.3325  2017.3325  2019.0777  2019.0777  2020.8230
  2020.8230  2022.5682  2022.5682  2024.3134  2024.3134  2026.0587
  2026.0587  2027.8039  2027.8039  2029.5492  2015.5872  2017.3325
  2017.3325  2019.0777  2019.0777  2020.8230  2020.8230  2022.5682
  2022.5682  2024.3134  2024.3134  2026.0587  2026.0587  2027.8039
  2027.8039  2029.5492  2018.2049  2019.9502  2019.9502  2021.6954
  2021.6954  2023.4407  2023.4407  2025.1859  2025.1859  2026.9311
  2026.9311  2028.6764  2028.6764  2030.4216  2030.4216  2032.1669
  2018.2049  2019.9502  2019.9502  2021.6954  2021.6954  2023.4407
  2023.4407  2025.1859  2025.1859  2026.9311  2026.9311  2028.6764
  2028.6764  2030.4216  2030.4216  2032.1669  2020.8226  2022.5679
  2022.5679  2024.3131  2024.3131  2026.0583  2026.0583  2027.8036
  2027.8036  2029.5488  2029.5488  2031.2941  2031.2941  2033.0393
  2033.0393  2034.7846  2020.8226  2022.5679  2022.5679  2024.3131
  2024.3131  2026.0583  2026.0583  2027.8036  2027.8036  2029.5488
  2029.5488  2031.2941  2031.2941  2033.0393  2033.0393  2034.7846
  2023.4403  2025.1856  2025.1856  2026.9308  2026.9308  2028.6760
  2028.6760  2030.4213  2030.4213  2032.1665  2032.1665  2033.9118
  2033.9118  2035.6570  2035.6570  2037.4022  2023.4403  2025.1856
  2025.1856  2026.9308  2026.9308  2028.6760  2028.6760  2030.4213
  2030.4213  2032.1665  2032.1665  2033.9118  2033.9118  2035.6570
  2035.6570  2037.4022  2026.0580  2027.8033  2027.8033  2029.5485
  2029.5485  2031.2937  2031.2937  2033.0390  2033.0390  2034.7842
  2034.7842  2036.5295  2036.5295  2038.2747  2038.2747  2040.0199
  2005.4973  2007.2425  2007.2425  2008.9878  2008.9878  2010.7330
  2010.7330  2012.4782  2012.4782  2014.2235  2014.2235  2015.9687
  2015.9687  2017.7140  2017.7140  2019.4592  2008.1150  2009.8602
  2009.8602  2011.6055  2011.6055  2013.3507  2013.3507  2015.0959
  2015.0959  2016.8412  2016.8412  2018.5864  2018.5864  2020.3317
  2020.3317  2022.0769  2008.1150  2009.8602  2009.8602  2011.6055
  2011.6055  2013.3507  2013.3507  2015.0959  2015.0959  2016.8412
  2016.8412  2018.5864  2018.5864  2020.3317  2020.3317  2022.0769
  2010.7327  2012.4779  2012.4779  2014.2231  2014.2231  2015.9684
  2015.9684  2017.7136  2017.7136  2019.4589  2019.4589  2021.2041
  2021.2041  2022.9494  2022.9494  2024.6946  2010.7327  2012.4779
  2012.4779  2014.2231  2014.2231  2015.9684  2015.9684  2017.7136
  2017.7136  2019.4589  2019.4589  2021.2041  2021.2041  2022.9494
  2022.9494  2024.6946  2013.3504  2015.0956  2015.0956  2016.8408
  2016.8408  2018.5861  2018.5861  2020.3313  2020.3313  2022.0766
  2022.0766  2023.8218  2023.8218  2025.5670  2025.5670  2027.3123
  2013.3504  2015.0956  2015.0956  2016.8408  2016.8408  2018.5861
  2018.5861  2020.3313  2020.3313  2022.0766  2022.0766  2023.8218
  2023.8218  2025.5670  2025.5670  2027.3123  2015.9681  2017.7133
  2017.7133  2019.4585  2019.4585  2021.2038  2021.2038  2022.9490
  2022.9490  2024.6943  2024.6943  2026.4395  2026.4395  2028.1847
  2028.1847  2029.9300  2015.9681  2017.7133  2017.7133  2019.4585
  2019.4585  2021.2038  2021.2038  2022.9490  2022.9490  2024.6943
  2024.6943  2026.4395  2026.4395  2028.1847  2028.1847  2029.9300
  2018.5858  2020.3310  2020.3310  2022.0762  2022.0762  2023.8215
  2023.8215  2025.5667  2025.5667  2027.3120  2027.3120  2029.0572
  2029.0572  2030.8024  2030.8024  2032.5477  2018.5858  2020.3310
  2020.3310  2022.0762  2022.0762  2023.8215  2023.8215  2025.5667
  2025.5667  2027.3120  2027.3120  2029.0572  2029.0572  2030.8024
  2030.8024  2032.5477  2021.2034  2022.9487  2022.9487  2024.6939
  2024.6939  2026.4392  2026.4392  2028.1844  2028.1844  2029.9296
  2029.9296  2031.6749  2031.6749  2033.4201  2033.4201  2035.1654
  2021.2034  2022.9487  2022.9487  2024.6939  2024.6939  2026.4392
  2026.4392  2028.1844  2028.1844  2029.9296  2029.9296  2031.6749
  2031.6749  2033.4201  2033.4201  2035.1654  2023.8211  2025.5664
  2025.5664  2027.3116  2027.3116  2029.0569  2029.0569  2030.8021
  2030.8021  2032.5473  2032.5473  2034.2926  2034.2926  2036.0378
  2036.0378  2037.7831  2023.8211  2025.5664  2025.5664  2027.3116
  2027.3116  2029.0569  2029.0569  2030.8021  2030.8021  2032.5473
  2032.5473  2034.2926  2034.2926  2036.0378  2036.0378  2037.7831
  2026.4388  2028.1841  2028.1841  2029.9293  2029.9293  2031.6746
  2031.6746  2033.4198  2033.4198  2035.1650  2035.1650  2036.9103
  2036.9103  2038.6555  2038.6555  2040.4008  2026.4388  2028.1841
  2028.1841  2029.9293  2029.9293  2031.6746  2031.6746  2033.4198
  2033.4198  2035.1650  2035.1650  2036.9103  2036.9103  2038.6555
  2038.6555  2040.4008  2029.0565  2030.8018  2030.8018  2032.5470
  2032.5470  2034.2923  2034.2923  2036.0375  2036.0375  2037.7827
  2037.7827  2039.5280  2039.5280  2041.2732  2041.2732  2043.0185
  2005.4973  2007.2425  2007.2425  2008.9878  2008.9878  2010.7330
  2010.7330  2012.4782  2012.4782  2014.2235  2014.2235  2015.9687
  2015.9687  2017.7140  2017.7140  2019.4592  2008.1150  2009.8602
  2009.8602  2011.6055  2011.6055  2013.3507  2013.3507  2015.0959
  2015.0959  2016.8412  2016.8412  2018.5864  2018.5864  2020.3317
  2020.3317  2022.0769  2008.1150  2009.8602  2009.8602  2011.6055
  2011.6055  2013.3507  2013.3507  2015.0959  2015.0959  2016.8412
  2016.8412  2018.5864  2018.5864  2020.3317  2020.3317  2022.0769
  2010.7327  2012.4779  2012.4779  2014.2231  2014.2231  2015.9684
  2015.9684  2017.7136  2017.7136  2019.4589  2019.4589  2021.2041
  2021.2041  2022.9494  2022.9494  2024.6946  2010.7327  2012.4779
  2012.4779  2014.2231  2014.2231  2015.9684  2015.9684  2017.7136
  2017.7136  2019.4589  2019.4589  2021.2041  2021.2041  2022.9494
  2022.9494  2024.6946  2013.3504  2015.0956  2015.0956  2016.8408
  2016.8408  2018.5861  2018.5861  2020.3313  2020.3313  2022.0766
  2022.0766  2023.8218  2023.8218  2025.5670  2025.5670  2027.3123
  2013.3504  2015.0956  2015.0956  2016.8408  2016.8408  2018.5861
  2018.5861  2020.3313  2020.3313  2022.0766  2022.0766  2023.8218
  2023.8218  2025.5670  2025.5670  2027.3123  2015.9681  2017.7133
  2017.7133  2019.4585  2019.4585  2021.2038  2021.2038  2022.9490
  2022.9490  2024.6943  2024.6943  2026.4395  2026.4395  2028.1847
  2028.1847  2029.9300  2015.9681  2017.7133  2017.7133  2019.4585
  2019.4585  2021.2038  2021.2038  2022.9490  2022.9490  2024.6943
  2024.6943  2026.4395  2026.4395  2028.1847  2028.1847  2029.9300
  2018.5858  2020.3310  2020.3310  2022.0762  2022.0762  2023.8215
  2023.8215  2025.5667  2025.5667  2027.3120  2027.3120  2029.0572
  2029.0572  2030.8024  2030.8024  2032.5477  2018.5858  2020.3310
  2020.3310  2022.0762  2022.0762  2023.8215  2023.8215  2025.5667
  2025.5667  2027.3120  2027.3120  2029.0572  2029.0572  2030.8024
  2030.8024  2032.5477  2021.2034  2022.9487  2022.9487  2024.6939
  2024.6939  2026.4392  2026.4392  2028.1844  2028.1844  2029.9296
  2029.9296  2031.6749  2031.6749  2033.4201  2033.4201  2035.1654
  2021.2034  2022.9487  2022.9487  2024.6939  2024.6939  2026.4392
  2026.4392  2028.1844  2028.1844  2029.9296  2029.9296  2031.6749
  2031.6749  2033.4201  2033.4201  2035.1654  2023.8211  2025.5664
  2025.5664  2027.3116  2027.3116  2029.0569  2029.0569  2030.8021
  2030.8021  2032.5473  2032.5473  2034.2926  2034.2926  2036.0378
  2036.0378  2037.7831  2023.8211  2025.5664  2025.5664  2027.3116
  2027.3116  2029.0569  2029.0569  2030.8021  2030.8021  2032.5473
  2032.5473  2034.2926  2034.2926  2036.0378  2036.0378  2037.7831
  2026.4388  2028.1841  2028.1841  2029.9293  2029.9293  2031.6746
  2031.6746  2033.4198  2033.4198  2035.1650  2035.1650  2036.9103
  2036.9103  2038.6555  2038.6555  2040.4008  2026.4388  2028.1841
  2028.1841  2029.9293  2029.9293  2031.6746  2031.6746  2033.4198
  2033.4198  2035.1650  2035.1650  2036.9103  2036.9103  2038.6555
  2038.6555  2040.4008  2029.0565  2030.8018  2030.8018  2032.5470
  2032.5470  2034.2923  2034.2923  2036.0375  2036.0375  2037.7827
  2037.7827  2039.5280  2039.5280  2041.2732  2041.2732  2043.0185
  2008.9955  2010.7408  2010.7408  2012.4860  2012.4860  2014.2313
  2014.2313  2015.9765  2015.9765  2017.7217  2017.7217  2019.4670
  2019.4670  2021.2122  2021.2122  2022.9575  2011.6132  2013.3585
  2013.3585  2015.1037  2015.1037  2016.8490  2016.8490  2018.5942
  2018.5942  2020.3394  2020.3394  2022.0847  2022.0847  2023.8299
  2023.8299  2025.5752  2011.6132  2013.3585  2013.3585  2015.1037
  2015.1037  2016.8490  2016.8490  2018.5942  2018.5942  2020.3394
  2020.3394  2022.0847  2022.0847  2023.8299  2023.8299  2025.5752
  2014.2309  2015.9762  2015.9762  2017.7214  2017.7214  2019.4667
  2019.4667  2021.2119  2021.2119  2022.9571  2022.9571  2024.7024
  2024.7024  2026.4476  2026.4476  2028.1929  2014.2309  2015.9762
  2015.9762  2017.7214  2017.7214  2019.4667  2019.4667  2021.2119
  2021.2119  2022.9571  2022.9571  2024.7024  2024.7024  2026.4476
  2026.4476  2028.1929  2016.8486  2018.5939  2018.5939  2020.3391
  2020.3391  2022.0844  2022.0844  2023.8296  2023.8296  2025.5748
  2025.5748  2027.3201  2027.3201  2029.0653  2029.0653  2030.8106
  2016.8486  2018.5939  2018.5939  2020.3391  2020.3391  2022.0844
  2022.0844  2023.8296  2023.8296  2025.5748  2025.5748  2027.3201
  2027.3201  2029.0653  2029.0653  2030.8106  2019.4663  2021.2116
  2021.2116  2022.9568  2022.9568  2024.7020  2024.7020  2026.4473
  2026.4473  2028.1925  2028.1925  2029.9378  2029.9378  2031.6830
  2031.6830  2033.4282  2019.4663  2021.2116  2021.2116  2022.9568
  2022.9568  2024.7020  2024.7020  2026.4473  2026.4473  2028.1925
  2028.1925  2029.9378  2029.9378  2031.6830  2031.6830  2033.4282
  2022.0840  2023.8293  2023.8293  2025.5745  2025.5745  2027.3197
  2027.3197  2029.0650  2029.0650  2030.8102  2030.8102  2032.5555
  2032.5555  2034.3007  2034.3007  2036.0459  2022.0840  2023.8293
  2023.8293  2025.5745  2025.5745  2027.3197  2027.3197  2029.0650
  2029.0650  2030.8102  2030.8102  2032.5555  2032.5555  2034.3007
  2034.3007  2036.0459  2024.7017  2026.4470  2026.4470  2028.1922
  2028.1922  2029.9374  2029.9374  2031.6827  2031.6827  2033.4279
  2033.4279  2035.1732  2035.1732  2036.9184  2036.9184  2038.6636
  2024.7017  2026.4470  2026.4470  2028.1922  2028.1922  2029.9374
  2029.9374  2031.6827  2031.6827  2033.4279  2033.4279  2035.1732
  2035.1732  2036.9184  2036.9184  2038.6636  2027.3194  2029.0646
  2029.0646  2030.8099  2030.8099  2032.5551  2032.5551  2034.3004
  2034.3004  2036.0456  2036.0456  2037.7909  2037.7909  2039.5361
  2039.5361  2041.2813  2027.3194  2029.0646  2029.0646  2030.8099
  2030.8099  2032.5551  2032.5551  2034.3004  2034.3004  2036.0456
  2036.0456  2037.7909  2037.7909  2039.5361  2039.5361  2041.2813
  2029.9371  2031.6823  2031.6823  2033.4276  2033.4276  2035.1728
  2035.1728  2036.9181  2036.9181  2038.6633  2038.6633  2040.4085
  2040.4085  2042.1538  2042.1538  2043.8990  2029.9371  2031.6823
  2031.6823  2033.4276  2033.4276  2035.1728  2035.1728  2036.9181
  2036.9181  2038.6633  2038.6633  2040.4085  2040.4085  2042.1538
  2042.1538  2043.8990  2032.5548  2034.3000  2034.3000  2036.0453
  2036.0453  2037.7905  2037.7905  2039.5358  2039.5358  2041.2810
  2041.2810  2043.0262  2043.0262  2044.7715  2044.7715  2046.5167
  2008.9955  2010.7408  2010.7408  2012.4860  2012.4860  2014.2313
  2014.2313  2015.9765  2015.9765  2017.7217  2017.7217  2019.4670
  2019.4670  2021.2122  2021.2122  2022.9575  2011.6132  2013.3585
  2013.3585  2015.1037  2015.1037  2016.8490  2016.8490  2018.5942
  2018.5942  2020.3394  2020.3394  2022.0847  2022.0847  2023.8299
  2023.8299  2025.5752  2011.6132  2013.3585  2013.3585  2015.1037
  2015.1037  2016.8490  2016.8490  2018.5942  2018.5942  2020.3394
  2020.3394  2022.0847  2022.0847  2023.8299  2023.8299  2025.5752
  2014.2309  2015.9762  2015.9762  2017.7214  2017.7214  2019.4667
  2019.4667  2021.2119  2021.2119  2022.9571  2022.9571  2024.7024
  2024.7024  2026.4476  2026.4476  2028.1929  2014.2309  2015.9762
  2015.9762  2017.7214  2017.7214  2019.4667  2019.4667  2021.2119
  2021.2119  2022.9571  2022.9571  2024.7024  2024.7024  2026.4476
  2026.4476  2028.1929  2016.8486  2018.5939  2018.5939  2020.3391
  2020.3391  2022.0844  2022.0844  2023.8296  2023.8296  2025.5748
  2025.5748  2027.3201  2027.3201  2029.0653  2029.0653  2030.8106
  2016.8486  2018.5939  2018.5939  2020.3391  2020.3391  2022.0844
  2022.0844  2023.8296  2023.8296  2025.5748  2025.5748  2027.3201
  2027.3201  2029.0653  2029.0653  2030.8106  2019.4663  2021.2116
  2021.2116  2022.9568  2022.9568  2024.7020  2024.7020  2026.4473
  2026.4473  2028.1925  2028.1925  2029.9378  2029.9378  2031.6830
  2031.6830  2033.4282  2019.4663  2021.2116  2021.2116  2022.9568
  2022.9568  2024.7020  2024.7020  2026.4473  2026.4473  2028.1925
  2028.1925  2029.9378  2029.9378  2031.6830  2031.6830  2033.4282
  2022.0840  2023.8293  2023.8293  2025.5745  2025.5745  2027.3197
  2027.3197  2029.0650  2029.0650  2030.8102  2030.8102  2032.5555
  2032.5555  2034.3007  2034.3007  2036.0459  2022.0840  2023.8293
  2023.8293  2025.5745  2025.5745  2027.3197  2027.3197  2029.0650
  2029.0650  2030.8102  2030.8102  2032.5555  2032.5555  2034.3007
  2034.3007  2036.0459  2024.7017  2026.4470  2026.4470  2028.1922
  2028.1922  2029.9374  2029.9374  2031.6827  2031.6827  2033.4279
  2033.4279  2035.1732  2035.1732  2036.9184  2036.9184  2038.6636
  2024.7017  2026.4470  2026.4470  2028.1922  2028.1922  2029.9374
  2029.9374  2031.6827  2031.6827  2033.4279  2033.4279  2035.1732
  2035.1732  2036.9184  2036.9184  2038.6636  2027.3194  2029.0646
  2029.0646  2030.8099  2030.8099  2032.5551  2032.5551  2034.3004
  2034.3004  2036.0456  2036.0456  2037.7909  2037.7909  2039.5361
  2039.5361  2041.2813  2027.3194  2029.0646  2029.0646  2030.8099
  2030.8099  2032.5551  2032.5551  2034.3004  2034.3004  2036.0456
  2036.0456  2037.7909  2037.7909  2039.5361  2039.5361  2041.2813
  2029.9371  2031.6823  2031.6823  2033.4276  2033.4276  2035.1728
  2035.1728  2036.9181  2036.9181  2038.6633  2038.6633  2040.4085
  2040.4085  2042.1538  2042.1538  2043.8990  2029.9371  2031.6823
  2031.6823  2033.4276  2033.4276  2035.1728  2035.1728  2036.9181
  2036.9181  2038.6633  2038.6633  2040.4085  2040.4085  2042.1538
  2042.1538  2043.8990  2032.5548  2034.3000  2034.3000  2036.0453
  2036.0453  2037.7905  2037.7905  2039.5358  2039.5358  2041.2810
  2041.2810  2043.0262  2043.0262  2044.7715  2044.7715  2046.5167
  2012.9936  2014.7388  2014.7388  2016.4840  2016.4840  2018.2293
  2018.2293  2019.9745  2019.9745  2021.7198  2021.7198  2023.4650
  2023.4650  2025.2102  2025.2102  2026.9555  2015.6113  2017.3565
  2017.3565  2019.1017  2019.1017  2020.8470  2020.8470  2022.5922
  2022.5922  2024.3375  2024.3375  2026.0827  2026.0827  2027.8279
  2027.8279  2029.5732  2015.6113  2017.3565  2017.3565  2019.1017
  2019.1017  2020.8470  2020.8470  2022.5922  2022.5922  2024.3375
  2024.3375  2026.0827  2026.0827  2027.8279  2027.8279  2029.5732
  2018.2290  2019.9742  2019.9742  2021.7194  2021.7194  2023.4647
  2023.4647  2025.2099  2025.2099  2026.9552  2026.9552  2028.7004
  2028.7004  2030.4456  2030.4456  2032.1909  2018.2290  2019.9742
  2019.9742  2021.7194  2021.7194  2023.4647  2023.4647  2025.2099
  2025.2099  2026.9552  2026.9552  2028.7004  2028.7004  2030.4456