-- This reservoir simulation deck is made available under the Open Database
-- License: http://opendatacommons.org/licenses/odbl/1.0/. Any rights in
-- individual contents of the database are licensed under the Database Contents
-- License: http://opendatacommons.org/licenses/dbcl/1.0/

-- Copyright (C) 2023 Equinor


SPECGRID
 12 10 5 1 F / 

COORD
  2000.0000  2000.0000  1994.5000   1999.8822  1999.9450  2011.9927 
  2099.9657  2000.0000  1997.1177   2099.8479  1999.9450  2014.6104 
  2199.9315  2000.0000  1999.7354   2199.8137  1999.9450  2017.2281 
  2299.8972  2000.0000  2004.8531   2299.7794  1999.9450  2022.3458 
  2399.8629  2000.0000  2007.4708   2399.7451  1999.9450  2024.9635 
  2499.8287  2000.0000  2013.0885   2499.7109  1999.9450  2030.5812 
  2599.7944  2000.0000  2015.7062   2599.6766  1999.9450  2033.1989 
  2699.7601  2000.0000  2018.3239   2699.6423  1999.9450  2035.8166 
  2799.7259  2000.0000  2022.4416   2799.6081  1999.9450  2039.9343 
  2899.6916  2000.0000  2025.0593   2899.5738  1999.9450  2042.5520 
  2999.6573  2000.0000  2027.6769   2999.5395  1999.9450  2045.1696 
  3099.6231  2000.0000  2030.2946   3099.5053  1999.9450  2047.7873 
  3199.5888  2000.0000  2032.9123   3199.4710  1999.9450  2050.4050 
  2000.0000  2099.9925  1995.7217   1999.8822  2099.9376  2013.2144 
  2099.9657  2099.9925  1998.3394   2099.8479  2099.9376  2015.8321 
  2199.9315  2099.9925  2000.9571   2199.8137  2099.9376  2018.4498 
  2299.8972  2099.9925  2006.0748   2299.7794  2099.9376  2023.5675 
  2399.8629  2099.9925  2008.6925   2399.7451  2099.9376  2026.1852 
  2499.8287  2099.9925  2014.3102   2499.7109  2099.9376  2031.8029 
  2599.7944  2099.9925  2016.9279   2599.6766  2099.9376  2034.4206 
  2699.7601  2099.9925  2019.5456   2699.6423  2099.9376  2037.0383 
  2799.7259  2099.9925  2023.6633   2799.6081  2099.9376  2041.1560 
  2899.6916  2099.9925  2026.2810   2899.5738  2099.9376  2043.7737 
  2999.6573  2099.9925  2028.8986   2999.5395  2099.9376  2046.3913 
  3099.6231  2099.9925  2031.5163   3099.5053  2099.9376  2049.0090 
  3199.5888  2099.9925  2034.1340   3199.4710  2099.9376  2051.6267 
  2000.0000  2199.9851  1996.9434   1999.8822  2199.9301  2014.4361 
  2099.9657  2199.9851  1999.5611   2099.8479  2199.9301  2017.0538 
  2199.9315  2199.9851  2002.1788   2199.8137  2199.9301  2019.6715 
  2299.8972  2199.9851  2007.2965   2299.7794  2199.9301  2024.7892 
  2399.8629  2199.9851  2009.9142   2399.7451  2199.9301  2027.4069 
  2499.8287  2199.9851  2015.5319   2499.7109  2199.9301  2033.0246 
  2599.7944  2199.9851  2018.1496   2599.6766  2199.9301  2035.6423 
  2699.7601  2199.9851  2020.7673   2699.6423  2199.9301  2038.2600 
  2799.7259  2199.9851  2024.8850   2799.6081  2199.9301  2042.3777 
  2899.6916  2199.9851  2027.5027   2899.5738  2199.9301  2044.9954 
  2999.6573  2199.9851  2030.1203   2999.5395  2199.9301  2047.6130 
  3099.6231  2199.9851  2032.7380   3099.5053  2199.9301  2050.2307 
  3199.5888  2199.9851  2035.3557   3199.4710  2199.9301  2052.8484 
  2000.0000  2299.9776  1998.1651   1999.8822  2299.9226  2015.6578 
  2099.9657  2299.9776  2000.7828   2099.8479  2299.9226  2018.2755 
  2199.9315  2299.9776  2003.4005   2199.8137  2299.9226  2020.8932 
  2299.8972  2299.9776  2008.5182   2299.7794  2299.9226  2026.0109 
  2399.8629  2299.9776  2011.1359   2399.7451  2299.9226  2028.6286 
  2499.8287  2299.9776  2016.7536   2499.7109  2299.9226  2034.2463 
  2599.7944  2299.9776  2019.3713   2599.6766  2299.9226  2036.8640 
  2699.7601  2299.9776  2021.9890   2699.6423  2299.9226  2039.4817 
  2799.7259  2299.9776  2026.1067   2799.6081  2299.9226  2043.5994 
  2899.6916  2299.9776  2028.7244   2899.5738  2299.9226  2046.2171 
  2999.6573  2299.9776  2031.3420   2999.5395  2299.9226  2048.8347 
  3099.6231  2299.9776  2033.9597   3099.5053  2299.9226  2051.4524 
  3199.5888  2299.9776  2036.5774   3199.4710  2299.9226  2054.0701 
  2000.0000  2399.9701  1999.3868   1999.8822  2399.9152  2016.8795 
  2099.9657  2399.9701  2002.0045   2099.8479  2399.9152  2019.4972 
  2199.9315  2399.9701  2004.6222   2199.8137  2399.9152  2022.1149 
  2299.8972  2399.9701  2009.7399   2299.7794  2399.9152  2027.2326 
  2399.8629  2399.9701  2012.3576   2399.7451  2399.9152  2029.8503 
  2499.8287  2399.9701  2017.9753   2499.7109  2399.9152  2035.4680 
  2599.7944  2399.9701  2020.5930   2599.6766  2399.9152  2038.0857 
  2699.7601  2399.9701  2023.2107   2699.6423  2399.9152  2040.7034 
  2799.7259  2399.9701  2027.3284   2799.6081  2399.9152  2044.8211 
  2899.6916  2399.9701  2029.9461   2899.5738  2399.9152  2047.4388 
  2999.6573  2399.9701  2032.5637   2999.5395  2399.9152  2050.0564 
  3099.6231  2399.9701  2035.1814   3099.5053  2399.9152  2052.6741 
  3199.5888  2399.9701  2037.7991   3199.4710  2399.9152  2055.2918 
  2000.0000  2499.9627  2000.6085   1999.8822  2499.9077  2018.1012 
  2099.9657  2499.9627  2003.2262   2099.8479  2499.9077  2020.7189 
  2199.9315  2499.9627  2005.8439   2199.8137  2499.9077  2023.3366 
  2299.8972  2499.9627  2010.9616   2299.7794  2499.9077  2028.4543 
  2399.8629  2499.9627  2013.5793   2399.7451  2499.9077  2031.0720 
  2499.8287  2499.9627  2019.1970   2499.7109  2499.9077  2036.6897 
  2599.7944  2499.9627  2021.8147   2599.6766  2499.9077  2039.3074 
  2699.7601  2499.9627  2024.4324   2699.6423  2499.9077  2041.9251 
  2799.7259  2499.9627  2028.5501   2799.6081  2499.9077  2046.0428 
  2899.6916  2499.9627  2031.1678   2899.5738  2499.9077  2048.6605 
  2999.6573  2499.9627  2033.7854   2999.5395  2499.9077  2051.2781 
  3099.6231  2499.9627  2036.4031   3099.5053  2499.9077  2053.8958 
  3199.5888  2499.9627  2039.0208   3199.4710  2499.9077  2056.5135 
  2000.0000  2599.9552  2004.3302   1999.8822  2599.9002  2021.8229 
  2099.9657  2599.9552  2006.9479   2099.8479  2599.9002  2024.4406 
  2199.9315  2599.9552  2009.5656   2199.8137  2599.9002  2027.0583 
  2299.8972  2599.9552  2012.1833   2299.7794  2599.9002  2029.6760 
  2399.8629  2599.9552  2014.8010   2399.7451  2599.9002  2032.2937 
  2499.8287  2599.9552  2020.4187   2499.7109  2599.9002  2037.9114 
  2599.7944  2599.9552  2023.0364   2599.6766  2599.9002  2040.5291 
  2699.7601  2599.9552  2025.6541   2699.6423  2599.9002  2043.1468 
  2799.7259  2599.9552  2029.7718   2799.6081  2599.9002  2047.2645 
  2899.6916  2599.9552  2032.3895   2899.5738  2599.9002  2049.8822 
  2999.6573  2599.9552  2035.0071   2999.5395  2599.9002  2052.4998 
  3099.6231  2599.9552  2037.6248   3099.5053  2599.9002  2055.1175 
  3199.5888  2599.9552  2040.2425   3199.4710  2599.9002  2057.7352 
  2000.0000  2699.9478  2005.5519   1999.8822  2699.8928  2023.0446 
  2099.9657  2699.9478  2008.1696   2099.8479  2699.8928  2025.6623 
  2199.9315  2699.9478  2010.7873   2199.8137  2699.8928  2028.2800 
  2299.8972  2699.9478  2013.4050   2299.7794  2699.8928  2030.8977 
  2399.8629  2699.9478  2016.0227   2399.7451  2699.8928  2033.5154 
  2499.8287  2699.9478  2021.6404   2499.7109  2699.8928  2039.1331 
  2599.7944  2699.9478  2024.2581   2599.6766  2699.8928  2041.7508 
  2699.7601  2699.9478  2026.8758   2699.6423  2699.8928  2044.3685 
  2799.7259  2699.9478  2030.9935   2799.6081  2699.8928  2048.4862 
  2899.6916  2699.9478  2033.6112   2899.5738  2699.8928  2051.1039 
  2999.6573  2699.9478  2036.2288   2999.5395  2699.8928  2053.7215 
  3099.6231  2699.9478  2038.8465   3099.5053  2699.8928  2056.3392 
  3199.5888  2699.9478  2041.4642   3199.4710  2699.8928  2058.9569 
  2000.0000  2799.9403  2006.7736   1999.8822  2799.8853  2024.2663 
  2099.9657  2799.9403  2009.3913   2099.8479  2799.8853  2026.8840 
  2199.9315  2799.9403  2012.0090   2199.8137  2799.8853  2029.5017 
  2299.8972  2799.9403  2014.6267   2299.7794  2799.8853  2032.1194 
  2399.8629  2799.9403  2017.2444   2399.7451  2799.8853  2034.7371 
  2499.8287  2799.9403  2022.8621   2499.7109  2799.8853  2040.3548 
  2599.7944  2799.9403  2025.4798   2599.6766  2799.8853  2042.9725 
  2699.7601  2799.9403  2028.0975   2699.6423  2799.8853  2045.5902 
  2799.7259  2799.9403  2032.2152   2799.6081  2799.8853  2049.7079 
  2899.6916  2799.9403  2034.8329   2899.5738  2799.8853  2052.3256 
  2999.6573  2799.9403  2037.4505   2999.5395  2799.8853  2054.9432 
  3099.6231  2799.9403  2040.0682   3099.5053  2799.8853  2057.5609 
  3199.5888  2799.9403  2042.6859   3199.4710  2799.8853  2060.1786 
  2000.0000  2899.9328  2007.9953   1999.8822  2899.8779  2025.4880 
  2099.9657  2899.9328  2010.6130   2099.8479  2899.8779  2028.1057 
  2199.9315  2899.9328  2013.2307   2199.8137  2899.8779  2030.7234 
  2299.8972  2899.9328  2015.8484   2299.7794  2899.8779  2033.3411 
  2399.8629  2899.9328  2018.4661   2399.7451  2899.8779  2035.9588 
  2499.8287  2899.9328  2024.0838   2499.7109  2899.8779  2041.5765 
  2599.7944  2899.9328  2026.7015   2599.6766  2899.8779  2044.1942 
  2699.7601  2899.9328  2029.3192   2699.6423  2899.8779  2046.8119 
  2799.7259  2899.9328  2033.4369   2799.6081  2899.8779  2050.9296 
  2899.6916  2899.9328  2036.0546   2899.5738  2899.8779  2053.5473 
  2999.6573  2899.9328  2038.6722   2999.5395  2899.8779  2056.1649 
  3099.6231  2899.9328  2041.2899   3099.5053  2899.8779  2058.7826 
  3199.5888  2899.9328  2043.9076   3199.4710  2899.8779  2061.4003 
  2000.0000  2999.9254  2009.2170   1999.8822  2999.8704  2026.7097 
  2099.9657  2999.9254  2011.8347   2099.8479  2999.8704  2029.3274 
  2199.9315  2999.9254  2014.4524   2199.8137  2999.8704  2031.9451 
  2299.8972  2999.9254  2017.0701   2299.7794  2999.8704  2034.5628 
  2399.8629  2999.9254  2019.6878   2399.7451  2999.8704  2037.1805 
  2499.8287  2999.9254  2025.3055   2499.7109  2999.8704  2042.7982 
  2599.7944  2999.9254  2027.9232   2599.6766  2999.8704  2045.4159 
  2699.7601  2999.9254  2030.5409   2699.6423  2999.8704  2048.0336 
  2799.7259  2999.9254  2034.6586   2799.6081  2999.8704  2052.1513 
  2899.6916  2999.9254  2037.2763   2899.5738  2999.8704  2054.7690 
  2999.6573  2999.9254  2039.8939   2999.5395  2999.8704  2057.3866 
  3099.6231  2999.9254  2042.5116   3099.5053  2999.8704  2060.0043 
  3199.5888  2999.9254  2045.1293   3199.4710  2999.8704  2062.6220 
/ 

ZCORN
  1994.5000  1997.1177  1997.1177  1999.7354  1999.7354  2002.3531
  2004.8531  2007.4708  2007.4708  2010.0885  2013.0885  2015.7062
  2015.7062  2018.3239  2018.3239  2020.9416  2022.4416  2025.0593
  2025.0593  2027.6769  2027.6769  2030.2946  2030.2946  2032.9123
  1995.7217  1998.3394  1998.3394  2000.9571  2000.9571  2003.5748
  2006.0748  2008.6925  2008.6925  2011.3102  2014.3102  2016.9279
  2016.9279  2019.5456  2019.5456  2022.1633  2023.6633  2026.2810
  2026.2810  2028.8986  2028.8986  2031.5163  2031.5163  2034.1340
  1995.7217  1998.3394  1998.3394  2000.9571  2000.9571  2003.5748
  2006.0748  2008.6925  2008.6925  2011.3102  2014.3102  2016.9279
  2016.9279  2019.5456  2019.5456  2022.1633  2023.6633  2026.2810
  2026.2810  2028.8986  2028.8986  2031.5163  2031.5163  2034.1340
  1996.9434  1999.5611  1999.5611  2002.1788  2002.1788  2004.7965
  2007.2965  2009.9142  2009.9142  2012.5319  2015.5319  2018.1496
  2018.1496  2020.7673  2020.7673  2023.3850  2024.8850  2027.5027
  2027.5027  2030.1203  2030.1203  2032.7380  2032.7380  2035.3557
  1996.9434  1999.5611  1999.5611  2002.1788  2002.1788  2004.7965
  2007.2965  2009.9142  2009.9142  2012.5319  2015.5319  2018.1496
  2018.1496  2020.7673  2020.7673  2023.3850  2024.8850  2027.5027
  2027.5027  2030.1203  2030.1203  2032.7380  2032.7380  2035.3557
  1998.1651  2000.7828  2000.7828  2003.4005  2003.4005  2006.0182
  2008.5182  2011.1359  2011.1359  2013.7536  2016.7536  2019.3713
  2019.3713  2021.9890  2021.9890  2024.6067  2026.1067  2028.7244
  2028.7244  2031.3420  2031.3420  2033.9597  2033.9597  2036.5774
  1998.1651  2000.7828  2000.7828  2003.4005  2003.4005  2006.0182
  2008.5182  2011.1359  2011.1359  2013.7536  2016.7536  2019.3713
  2019.3713  2021.9890  2021.9890  2024.6067  2026.1067  2028.7244
  2028.7244  2031.3420  2031.3420  2033.9597  2033.9597  2036.5774
  1999.3868  2002.0045  2002.0045  2004.6222  2004.6222  2007.2399
  2009.7399  2012.3576  2012.3576  2014.9753  2017.9753  2020.5930
  2020.5930  2023.2107  2023.2107  2025.8284  2027.3284  2029.9461
  2029.9461  2032.5637  2032.5637  2035.1814  2035.1814  2037.7991
  1999.3868  2002.0045  2002.0045  2004.6222  2004.6222  2007.2399
  2009.7399  2012.3576  2012.3576  2014.9753  2017.9753  2020.5930
  2020.5930  2023.2107  2023.2107  2025.8284  2027.3284  2029.9461
  2029.9461  2032.5637  2032.5637  2035.1814  2035.1814  2037.7991
  2000.6085  2003.2262  2003.2262  2005.8439  2005.8439  2008.4616
  2010.9616  2013.5793  2013.5793  2016.1970  2019.1970  2021.8147
  2021.8147  2024.4324  2024.4324  2027.0501  2028.5501  2031.1678
  2031.1678  2033.7854  2033.7854  2036.4031  2036.4031  2039.0208
  2000.6085  2003.2262  2003.2262  2005.8439  2005.8439  2008.4616
  2010.9616  2013.5793  2013.5793  2016.1970  2019.1970  2021.8147
  2021.8147  2024.4324  2024.4324  2027.0501  2028.5501  2031.1678
  2031.1678  2033.7854  2033.7854  2036.4031  2036.4031  2039.0208
  2001.8302  2004.4479  2004.4479  2007.0656  2007.0656  2009.6833
  2012.1833  2014.8010  2014.8010  2017.4187  2020.4187  2023.0364
  2023.0364  2025.6541  2025.6541  2028.2718  2029.7718  2032.3895
  2032.3895  2035.0071  2035.0071  2037.6248  2037.6248  2040.2425
  2004.3302  2006.9479  2006.9479  2009.5656  2009.5656  2012.1833
  2012.1833  2014.8010  2014.8010  2017.4187  2020.4187  2023.0364
  2023.0364  2025.6541  2025.6541  2028.2718  2029.7718  2032.3895
  2032.3895  2035.0071  2035.0071  2037.6248  2037.6248  2040.2425
  2005.5519  2008.1696  2008.1696  2010.7873  2010.7873  2013.4050
  2013.4050  2016.0227  2016.0227  2018.6404  2021.6404  2024.2581
  2024.2581  2026.8758  2026.8758  2029.4935  2030.9935  2033.6112
  2033.6112  2036.2288  2036.2288  2038.8465  2038.8465  2041.4642
  2005.5519  2008.1696  2008.1696  2010.7873  2010.7873  2013.4050
  2013.4050  2016.0227  2016.0227  2018.6404  2021.6404  2024.2581
  2024.2581  2026.8758  2026.8758  2029.4935  2030.9935  2033.6112
  2033.6112  2036.2288  2036.2288  2038.8465  2038.8465  2041.4642
  2006.7736  2009.3913  2009.3913  2012.0090  2012.0090  2014.6267
  2014.6267  2017.2444  2017.2444  2019.8621  2022.8621  2025.4798
  2025.4798  2028.0975  2028.0975  2030.7152  2032.2152  2034.8329
  2034.8329  2037.4505  2037.4505  2040.0682  2040.0682  2042.6859
  2006.7736  2009.3913  2009.3913  2012.0090  2012.0090  2014.6267
  2014.6267  2017.2444  2017.2444  2019.8621  2022.8621  2025.4798
  2025.4798  2028.0975  2028.0975  2030.7152  2032.2152  2034.8329
  2034.8329  2037.4505  2037.4505  2040.0682  2040.0682  2042.6859
  2007.9953  2010.6130  2010.6130  2013.2307  2013.2307  2015.8484
  2015.8484  2018.4661  2018.4661  2021.0838  2024.0838  2026.7015
  2026.7015  2029.3192  2029.3192  2031.9369  2033.4369  2036.0546
  2036.0546  2038.6722  2038.6722  2041.2899  2041.2899  2043.9076
  2007.9953  2010.6130  2010.6130  2013.2307  2013.2307  2015.8484
  2015.8484  2018.4661  2018.4661  2021.0838  2024.0838  2026.7015
  2026.7015  2029.3192  2029.3192  2031.9369  2033.4369  2036.0546
  2036.0546  2038.6722  2038.6722  2041.2899  2041.2899  2043.9076
  2009.2170  2011.8347  2011.8347  2014.4524  2014.4524  2017.0701
  2017.0701  2019.6878  2019.6878  2022.3055  2025.3055  2027.9232
  2027.9232  2030.5409  2030.5409  2033.1586  2034.6586  2037.2763
  2037.2763  2039.8939  2039.8939  2042.5116  2042.5116  2045.1293
  1996.9990  1999.6167  1999.6167  2002.2343  2002.2343  2004.8520
  2007.3520  2009.9697  2009.9697  2012.5874  2015.5874  2018.2051
  2018.2051  2020.8228  2020.8228  2023.4405  2024.9405  2027.5582
  2027.5582  2030.1759  2030.1759  2032.7936  2032.7936  2035.4113
  1998.2207  2000.8384  2000.8384  2003.4560  2003.4560  2006.0737
  2008.5737  2011.1914  2011.1914  2013.8091  2016.8091  2019.4268
  2019.4268  2022.0445  2022.0445  2024.6622  2026.1622  2028.7799
  2028.7799  2031.3976  2031.3976  2034.0153  2034.0153  2036.6330
  1998.2207  2000.8384  2000.8384  2003.4560  2003.4560  2006.0737
  2008.5737  2011.1914  2011.1914  2013.8091  2016.8091  2019.4268
  2019.4268  2022.0445  2022.0445  2024.6622  2026.1622  2028.7799
  2028.7799  2031.3976  2031.3976  2034.0153  2034.0153  2036.6330
  1999.4424  2002.0601  2002.0601  2004.6777  2004.6777  2007.2954
  2009.7954  2012.4131  2012.4131  2015.0308  2018.0308  2020.6485
  2020.6485  2023.2662  2023.2662  2025.8839  2027.3839  2030.0016
  2030.0016  2032.6193  2032.6193  2035.2370  2035.2370  2037.8547
  1999.4424  2002.0601  2002.0601  2004.6777  2004.6777  2007.2954
  2009.7954  2012.4131  2012.4131  2015.0308  2018.0308  2020.6485
  2020.6485  2023.2662  2023.2662  2025.8839  2027.3839  2030.0016
  2030.0016  2032.6193  2032.6193  2035.2370  2035.2370  2037.8547
  2000.6641  2003.2818  2003.2818  2005.8994  2005.8994  2008.5171
  2011.0171  2013.6348  2013.6348  2016.2525  2019.2525  2021.8702
  2021.8702  2024.4879  2024.4879  2027.1056  2028.6056  2031.2233
  2031.2233  2033.8410  2033.8410  2036.4587  2036.4587  2039.0764
  2000.6641  2003.2818  2003.2818  2005.8994  2005.8994  2008.5171
  2011.0171  2013.6348  2013.6348  2016.2525  2019.2525  2021.8702
  2021.8702  2024.4879  2024.4879  2027.1056  2028.6056  2031.2233
  2031.2233  2033.8410  2033.8410  2036.4587  2036.4587  2039.0764
  2001.8858  2004.5035  2004.5035  2007.1211  2007.1211  2009.7388
  2012.2388  2014.8565  2014.8565  2017.4742  2020.4742  2023.0919
  2023.0919  2025.7096  2025.7096  2028.3273  2029.8273  2032.4450
  2032.4450  2035.0627  2035.0627  2037.6804  2037.6804  2040.2981
  2001.8858  2004.5035  2004.5035  2007.1211  2007.1211  2009.7388
  2012.2388  2014.8565  2014.8565  2017.4742  2020.4742  2023.0919
  2023.0919  2025.7096  2025.7096  2028.3273  2029.8273  2032.4450
  2032.4450  2035.0627  2035.0627  2037.6804  2037.6804  2040.2981
  2003.1075  2005.7252  2005.7252  2008.3428  2008.3428  2010.9605
  2013.4605  2016.0782  2016.0782  2018.6959  2021.6959  2024.3136
  2024.3136  2026.9313  2026.9313  2029.5490  2031.0490  2033.6667
  2033.6667  2036.2844  2036.2844  2038.9021  2038.9021  2041.5198
  2003.1075  2005.7252  2005.7252  2008.3428  2008.3428  2010.9605
  2013.4605  2016.0782  2016.0782  2018.6959  2021.6959  2024.3136
  2024.3136  2026.9313  2026.9313  2029.5490  2031.0490  2033.6667
  2033.6667  2036.2844  2036.2844  2038.9021  2038.9021  2041.5198
  2004.3292  2006.9469  2006.9469  2009.5645  2009.5645  2012.1822
  2014.6822  2017.2999  2017.2999  2019.9176  2022.9176  2025.5353
  2025.5353  2028.1530  2028.1530  2030.7707  2032.2707  2034.8884
  2034.8884  2037.5061  2037.5061  2040.1238  2040.1238  2042.7415
  2006.8292  2009.4469  2009.4469  2012.0645  2012.0645  2014.6822
  2014.6822  2017.2999  2017.2999  2019.9176  2022.9176  2025.5353
  2025.5353  2028.1530  2028.1530  2030.7707  2032.2707  2034.8884
  2034.8884  2037.5061  2037.5061  2040.1238  2040.1238  2042.7415
  2008.0509  2010.6686  2010.6686  2013.2862  2013.2862  2015.9039
  2015.9039  2018.5216  2018.5216  2021.1393  2024.1393  2026.7570
  2026.7570  2029.3747  2029.3747  2031.9924  2033.4924  2036.1101
  2036.1101  2038.7278  2038.7278  2041.3455  2041.3455  2043.9632
  2008.0509  2010.6686  2010.6686  2013.2862  2013.2862  2015.9039
  2015.9039  2018.5216  2018.5216  2021.1393  2024.1393  2026.7570
  2026.7570  2029.3747  2029.3747  2031.9924  2033.4924  2036.1101
  2036.1101  2038.7278  2038.7278  2041.3455  2041.3455  2043.9632
  2009.2726  2011.8903  2011.8903  2014.5079  2014.5079  2017.1256
  2017.1256  2019.7433  2019.7433  2022.3610  2025.3610  2027.9787
  2027.9787  2030.5964  2030.5964  2033.2141  2034.7141  2037.3318
  2037.3318  2039.9495  2039.9495  2042.5672  2042.5672  2045.1849
  2009.2726  2011.8903  2011.8903  2014.5079  2014.5079  2017.1256
  2017.1256  2019.7433  2019.7433  2022.3610  2025.3610  2027.9787
  2027.9787  2030.5964  2030.5964  2033.2141  2034.7141  2037.3318
  2037.3318  2039.9495  2039.9495  2042.5672  2042.5672  2045.1849
  2010.4943  2013.1120  2013.1120  2015.7296  2015.7296  2018.3473
  2018.3473  2020.9650  2020.9650  2023.5827  2026.5827  2029.2004
  2029.2004  2031.8181  2031.8181  2034.4358  2035.9358  2038.5535
  2038.5535  2041.1712  2041.1712  2043.7889  2043.7889  2046.4066
  2010.4943  2013.1120  2013.1120  2015.7296  2015.7296  2018.3473
  2018.3473  2020.9650  2020.9650  2023.5827  2026.5827  2029.2004
  2029.2004  2031.8181  2031.8181  2034.4358  2035.9358  2038.5535
  2038.5535  2041.1712  2041.1712  2043.7889  2043.7889  2046.4066
  2011.7160  2014.3337  2014.3337  2016.9513  2016.9513  2019.5690
  2019.5690  2022.1867  2022.1867  2024.8044  2027.8044  2030.4221
  2030.4221  2033.0398  2033.0398  2035.6575  2037.1575  2039.7752
  2039.7752  2042.3929  2042.3929  2045.0106  2045.0106  2047.6283
  1996.9990  1999.6167  1999.6167  2002.2343  2002.2343  2004.8520
  2007.3520  2009.9697  2009.9697  2012.5874  2015.5874  2018.2051
  2018.2051  2020.8228  2020.8228  2023.4405  2024.9405  2027.5582
  2027.5582  2030.1759  2030.1759  2032.7936  2032.7936  2035.4113
  1998.2207  2000.8384  2000.8384  2003.4560  2003.4560  2006.0737
  2008.5737  2011.1914  2011.1914  2013.8091  2016.8091  2019.4268
  2019.4268  2022.0445  2022.0445  2024.6622  2026.1622  2028.7799
  2028.7799  2031.3976  2031.3976  2034.0153  2034.0153  2036.6330
  1998.2207  2000.8384  2000.8384  2003.4560  2003.4560  2006.0737
  2008.5737  2011.1914  2011.1914  2013.8091  2016.8091  2019.4268
  2019.4268  2022.0445  2022.0445  2024.6622  2026.1622  2028.7799
  2028.7799  2031.3976  2031.3976  2034.0153  2034.0153  2036.6330
  1999.4424  2002.0601  2002.0601  2004.6777  2004.6777  2007.2954
  2009.7954  2012.4131  2012.4131  2015.0308  2018.0308  2020.6485
  2020.6485  2023.2662  2023.2662  2025.8839  2027.3839  2030.0016
  2030.0016  2032.6193  2032.6193  2035.2370  2035.2370  2037.8547
  1999.4424  2002.0601  2002.0601  2004.6777  2004.6777  2007.2954
  2009.7954  2012.4131  2012.4131  2015.0308  2018.0308  2020.6485
  2020.6485  2023.2662  2023.2662  2025.8839  2027.3839  2030.0016
  2030.0016  2032.6193  2032.6193  2035.2370  2035.2370  2037.8547
  2000.6641  2003.2818  2003.2818  2005.8994  2005.8994  2008.5171
  2011.0171  2013.6348  2013.6348  2016.2525  2019.2525  2021.8702
  2021.8702  2024.4879  2024.4879  2027.1056  2028.6056  2031.2233
  2031.2233  2033.8410  2033.8410  2036.4587  2036.4587  2039.0764
  2000.6641  2003.2818  2003.2818  2005.8994  2005.8994  2008.5171
  2011.0171  2013.6348  2013.6348  2016.2525  2019.2525  2021.8702
  2021.8702  2024.4879  2024.4879  2027.1056  2028.6056  2031.2233
  2031.2233  2033.8410  2033.8410  2036.4587  2036.4587  2039.0764
  2001.8858  2004.5035  2004.5035  2007.1211  2007.1211  2009.7388
  2012.2388  2014.8565  2014.8565  2017.4742  2020.4742  2023.0919
  2023.0919  2025.7096  2025.7096  2028.3273  2029.8273  2032.4450
  2032.4450  2035.0627  2035.0627  2037.6804  2037.6804  2040.2981
  2001.8858  2004.5035  2004.5035  2007.1211  2007.1211  2009.7388
  2012.2388  2014.8565  2014.8565  2017.4742  2020.4742  2023.0919
  2023.0919  2025.7096  2025.7096  2028.3273  2029.8273  2032.4450
  2032.4450  2035.0627  2035.0627  2037.6804  2037.6804  2040.2981
  2003.1075  2005.7252  2005.7252  2008.3428  2008.3428  2010.9605
  2013.4605  2016.0782  2016.0782  2018.6959  2021.6959  2024.3136
  2024.3136  2026.9313  2026.9313  2029.5490  2031.0490  2033.6667
  2033.6667  2036.2844  2036.2844  2038.9021  2038.9021  2041.5198
  2003.1075  2005.7252  2005.7252  2008.3428  2008.3428  2010.9605
  2013.4605  2016.0782  2016.0782  2018.6959  2021.6959  2024.3136
  2024.3136  2026.9313  2026.9313  2029.5490  2031.0490  2033.6667
  2033.6667  2036.2844  2036.2844  2038.9021  2038.9021  2041.5198
  2004.3292  2006.9469  2006.9469  2009.5645  2009.5645  2012.1822
  2014.6822  2017.2999  2017.2999  2019.9176  2022.9176  2025.5353
  2025.5353  2028.1530  2028.1530  2030.7707  2032.2707  2034.8884
  2034.8884  2037.5061  2037.5061  2040.1238  2040.1238  2042.7415
  2006.8292  2009.4469  2009.4469  2012.0645  2012.0645  2014.6822
  2014.6822  2017.2999  2017.2999  2019.9176  2022.9176  2025.5353
  2025.5353  2028.1530  2028.1530  2030.7707  2032.2707  2034.8884
  2034.8884  2037.5061  2037.5061  2040.1238  2040.1238  2042.7415
  2008.0509  2010.6686  2010.6686  2013.2862  2013.2862  2015.9039
  2015.9039  2018.5216  2018.5216  2021.1393  2024.1393  2026.7570
  2026.7570  2029.3747  2029.3747  2031.9924  2033.4924  2036.1101
  2036.1101  2038.7278  2038.7278  2041.3455  2041.3455  2043.9632
  2008.0509  2010.6686  2010.6686  2013.2862  2013.2862  2015.9039
  2015.9039  2018.5216  2018.5216  2021.1393  2024.1393  2026.7570
  2026.7570  2029.3747  2029.3747  2031.9924  2033.4924  2036.1101
  2036.1101  2038.7278  2038.7278  2041.3455  2041.3455  2043.9632
  2009.2726  2011.8903  2011.8903  2014.5079  2014.5079  2017.1256
  2017.1256  2019.7433  2019.7433  2022.3610  2025.3610  2027.9787
  2027.9787  2030.5964  2030.5964  2033.2141  2034.7141  2037.3318
  2037.3318  2039.9495  2039.9495  2042.5672  2042.5672  2045.1849
  2009.2726  2011.8903  2011.8903  2014.5079  2014.5079  2017.1256
  2017.1256  2019.7433  2019.7433  2022.3610  2025.3610  2027.9787
  2027.9787  2030.5964  2030.5964  2033.2141  2034.7141  2037.3318
  2037.3318  2039.9495  2039.9495  2042.5672  2042.5672  2045.1849
  2010.4943  2013.1120  2013.1120  2015.7296  2015.7296  2018.3473
  2018.3473  2020.9650  2020.9650  2023.5827  2026.5827  2029.2004
  2029.2004  2031.8181  2031.8181  2034.4358  2035.9358  2038.5535
  2038.5535  2041.1712  2041.1712  2043.7889  2043.7889  2046.4066
  2010.4943  2013.1120  2013.1120  2015.7296  2015.7296  2018.3473
  2018.3473  2020.9650  2020.9650  2023.5827  2026.5827  2029.2004
  2029.2004  2031.8181  2031.8181  2034.4358  2035.9358  2038.5535
  2038.5535  2041.1712  2041.1712  2043.7889  2043.7889  2046.4066
  2011.7160  2014.3337  2014.3337  2016.9513  2016.9513  2019.5690
  2019.5690  2022.1867  2022.1867  2024.8044  2027.8044  2030.4221
  2030.4221  2033.0398  2033.0398  2035.6575  2037.1575  2039.7752
  2039.7752  2042.3929  2042.3929  2045.0106  2045.0106  2047.6283
  1999.9977  2002.6154  2002.6154  2005.2331  2005.2331  2007.8508
  2010.3508  2012.9685  2012.9685  2015.5862  2018.5862  2021.2039
  2021.2039  2023.8216  2023.8216  2026.4393  2027.9393  2030.5570
  2030.5570  2033.1747  2033.1747  2035.7923  2035.7923  2038.4100
  2001.2194  2003.8371  2003.8371  2006.4548  2006.4548  2009.0725
  2011.5725  2014.1902  2014.1902  2016.8079  2019.8079  2022.4256
  2022.4256  2025.0433  2025.0433  2027.6610  2029.1610  2031.7787
  2031.7787  2034.3964  2034.3964  2037.0140  2037.0140  2039.6317
  2001.2194  2003.8371  2003.8371  2006.4548  2006.4548  2009.0725
  2011.5725  2014.1902  2014.1902  2016.8079  2019.8079  2022.4256
  2022.4256  2025.0433  2025.0433  2027.6610  2029.1610  2031.7787
  2031.7787  2034.3964  2034.3964  2037.0140  2037.0140  2039.6317
  2002.4411  2005.0588  2005.0588  2007.6765  2007.6765  2010.2942
  2012.7942  2015.4119  2015.4119  2018.0296  2021.0296  2023.6473
  2023.6473  2026.2650  2026.2650  2028.8827  2030.3827  2033.0004
  2033.0004  2035.6181  2035.6181  2038.2357  2038.2357  2040.8534
  2002.4411  2005.0588  2005.0588  2007.6765  2007.6765  2010.2942
  2012.7942  2015.4119  2015.4119  2018.0296  2021.0296  2023.6473
  2023.6473  2026.2650  2026.2650  2028.8827  2030.3827  2033.0004
  2033.0004  2035.6181  2035.6181  2038.2357  2038.2357  2040.8534
  2003.6628  2006.2805  2006.2805  2008.8982  2008.8982  2011.5159
  2014.0159  2016.6336  2016.6336  2019.2513  2022.2513  2024.8690
  2024.8690  2027.4867  2027.4867  2030.1044  2031.6044  2034.2221
  2034.2221  2036.8398  2036.8398  2039.4574  2039.4574  2042.0751
  2003.6628  2006.2805  2006.2805  2008.8982  2008.8982  2011.5159
  2014.0159  2016.6336  2016.6336  2019.2513  2022.2513  2024.8690
  2024.8690  2027.4867  2027.4867  2030.1044  2031.6044  2034.2221
  2034.2221  2036.8398  2036.8398  2039.4574  2039.4574  2042.0751
  2004.8845  2007.5022  2007.5022  2010.1199  2010.1199  2012.7376
  2015.2376  2017.8553  2017.8553  2020.4730  2023.4730  2026.0907
  2026.0907  2028.7084  2028.7084  2031.3261  2032.8261  2035.4438
  2035.4438  2038.0615  2038.0615  2040.6791  2040.6791  2043.2968
  2004.8845  2007.5022  2007.5022  2010.1199  2010.1199  2012.7376
  2015.2376  2017.8553  2017.8553  2020.4730  2023.4730  2026.0907
  2026.0907  2028.7084  2028.7084  2031.3261  2032.8261  2035.4438
  2035.4438  2038.0615  2038.0615  2040.6791  2040.6791  2043.2968
  2006.1062  2008.7239  2008.7239  2011.3416  2011.3416  2013.9593
  2016.4593  2019.0770  2019.0770  2021.6947  2024.6947  2027.3124
  2027.3124  2029.9301  2029.9301  2032.5478  2034.0478  2036.6655
  2036.6655  2039.2832  2039.2832  2041.9008  2041.9008  2044.5185
  2006.1062  2008.7239  2008.7239  2011.3416  2011.3416  2013.9593
  2016.4593  2019.0770  2019.0770  2021.6947  2024.6947  2027.3124
  2027.3124  2029.9301  2029.9301  2032.5478  2034.0478  2036.6655
  2036.6655  2039.2832  2039.2832  2041.9008  2041.9008  2044.5185
  2007.3279  2009.9456  2009.9456  2012.5633  2012.5633  2015.1810
  2017.6810  2020.2987  2020.2987  2022.9164  2025.9164  2028.5341
  2028.5341  2031.1518  2031.1518  2033.7695  2035.2695  2037.8872
  2037.8872  2040.5049  2040.5049  2043.1225  2043.1225  2045.7402
  2009.8279  2012.4456  2012.4456  2015.0633  2015.0633  2017.6810
  2017.6810  2020.2987  2020.2987  2022.9164  2025.9164  2028.5341
  2028.5341  2031.1518  2031.1518  2033.7695  2035.2695  2037.8872
  2037.8872  2040.5049  2040.5049  2043.1225  2043.1225  2045.7402
  2011.0496  2013.6673  2013.6673  2016.2850  2016.2850  2018.9027
  2018.9027  2021.5204  2021.5204  2024.1381  2027.1381  2029.7558
  2029.7558  2032.3735  2032.3735  2034.9912  2036.4912  2039.1089