-- This reservoir simulation deck is made available under the Open Database
-- License: http://opendatacommons.org/licenses/odbl/1.0/. Any rights in
-- individual contents of the database are licensed under the Database Contents
-- License: http://opendatacommons.org/licenses/dbcl/1.0/

-- Copyright (C) 2023 Equinor

SPECGRID
 5 7 2 1 F /

COORD
 4355.1754 8178.2388 2475.1600 4348.6785 8177.1899 2491.6250
 4456.3318 8195.4372 2461.8460 4449.5871 8194.3403 2478.3000
 4557.6125 8212.3825 2450.8820 4550.6222 8211.2452 2467.1560
 4659.2548 8229.0153 2442.6450 4651.7646 8227.8086 2459.1070
 4763.1226 8245.6296 2433.1450 4754.8459 8244.3243 2450.2240
 4873.9445 8263.0755 2411.4230 4864.4523 8261.6220 2429.9350
 4371.9690 8079.4868 2477.5860 4365.5261 8078.4592 2494.0000
 4472.3953 8096.5201 2466.6990 4465.6813 8095.4424 2483.0690
 4574.0109 8113.4634 2455.6280 4566.9452 8112.3288 2471.9190
 4677.1597 8130.2715 2445.0680 4669.5110 8129.0535 2461.5250
 4782.5920 8147.0176 2434.6210 4774.1236 8145.6940 2451.4960
 4893.1070 8164.1220 2417.1850 4885.6149 8162.9882 2431.1670
 4388.9122 7980.7814 2480.7180 4382.5550 7979.7819 2497.0310
 4489.7860 7997.8631 2469.4180 4483.0316 7996.7947 2485.9490
 4590.8189 8014.6829 2461.1190 4583.7313 8013.5612 2477.4210
 4695.5667 8031.6884 2449.1890 4687.5936 8030.4360 2466.1580
 4804.1557 8048.7995 2435.2350 4795.4302 8047.4541 2452.2610
 4916.4400 8065.8327 2417.7740 4907.5978 8064.5203 2433.8180
 4406.1361 7882.1219 2484.4250 4399.7427 7881.1348 2500.9730
 4506.8321 7899.1810 2473.6120 4499.9321 7898.1093 2490.6790
 4608.5357 7916.1030 2464.5780 4601.4426 7915.0012 2481.0710
 4713.8780 7933.1618 2453.3650 4705.9100 7931.9346 2470.4710
 4824.7584 7950.4787 2436.2400 4816.0952 7949.1749 2453.3230
 4939.1684 7967.4948 2415.6470 4928.6000 7965.9809 2435.1240
 4425.4894 7783.7585 2484.6550 4419.0790 7782.7917 2501.3400
 4525.6317 7800.7526 2474.8300 4518.8612 7799.7268 2491.7810
 4627.3839 7817.7121 2465.0680 4620.2201 7816.6283 2482.0700
 4733.1344 7834.8345 2452.3270 4725.3068 7833.6641 2469.6310
 4842.8535 7851.8796 2436.6160 4834.4507 7850.6621 2453.8680
 4955.6998 7868.5136 2418.1410 4947.4641 7867.3900 2434.0740
 4445.5989 7685.4639 2485.4410 4439.4469 7684.5631 2501.4330
 4546.3957 7702.5646 2473.9860 4539.5623 7701.5622 2491.1510
 4647.8148 7719.5121 2463.7480 4640.6240 7718.4628 2481.0510
 4752.1639 7736.4717 2451.0960 4744.4396 7735.3643 2468.6860
 4860.3844 7753.3322 2435.1750 4852.1013 7752.1906 2452.9330
 4966.4412 7769.2009 2428.8640 4958.9410 7768.2299 2444.0700
 4466.6968 7587.2734 2486.2090 4460.0791 7586.3378 2503.2460
 4567.7866 7604.4109 2474.9540 4560.9670 7603.4489 2491.9250
 4669.2245 7621.3738 2464.7200 4662.0724 7620.3757 2481.8230
 4771.6221 7638.1069 2454.8360 4764.0894 7637.0813 2472.0170
 4875.1205 7654.5419 2445.5690 4867.0738 7653.4896 2463.0310
 4979.8405 7670.6936 2438.7710 4971.0318 7669.6009 2456.9360
 4552.1900 7497.8500 2325.9700 4238.3980 7455.1350 3120.2100
 4655.5110 7515.2130 2316.9570 4331.2240 7471.3620 3108.0730
 4758.7970 7532.2820 2311.1010 4422.6620 7487.5540 3095.8690
 4862.3250 7548.9940 2307.2740 4512.8040 7503.7610 3083.9650
 4963.8050 7565.1560 2308.1710 4602.5830 7519.9760 3075.0290
 5065.6810 7581.1680 2309.8740 4694.6430 7536.4220 3065.1380
/

ZCORN
 2468.8700 2457.4850 2457.4850 2448.2610 2448.2610 2441.2580 2441.2580 2432.2420
 2432.2420 2407.9330 2475.1600 2461.8460 2461.8460 2450.8820 2450.8820 2442.6450
 2442.6450 2433.1450 2433.1450 2411.4230 2475.1600 2461.8460 2461.8460 2450.8820
 2450.8820 2442.6450 2442.6450 2433.1450 2433.1450 2411.4230 2477.5860 2466.6990
 2466.6990 2455.6280 2455.6280 2445.0680 2445.0680 2434.6210 2434.6210 2417.1850
 2477.5860 2466.6990 2466.6990 2455.6280 2455.6280 2445.0680 2445.0680 2434.6210
 2434.6210 2417.1850 2480.7180 2469.4180 2469.4180 2461.1190 2461.1190 2449.1890
 2449.1890 2435.2350 2435.2350 2417.7740 2480.7180 2469.4180 2469.4180 2461.1190
 2461.1190 2449.1890 2449.1890 2435.2350 2435.2350 2417.7740 2484.4250 2473.6120
 2473.6120 2464.5780 2464.5780 2453.3650 2453.3650 2436.2400 2436.2400 2415.6470
 2484.4250 2473.6120 2473.6120 2464.5780 2464.5780 2453.3650 2453.3650 2436.2400
 2436.2400 2415.6470 2484.6550 2474.8300 2474.8300 2465.0680 2465.0680 2452.3270
 2452.3270 2436.6160 2436.6160 2418.1410 2484.6550 2474.8300 2474.8300 2465.0680
 2465.0680 2452.3270 2452.3270 2436.6160 2436.6160 2418.1410 2485.4410 2473.9860
 2473.9860 2463.7480 2463.7480 2451.0960 2451.0960 2435.1750 2435.1750 2428.8640
 2485.4410 2473.9860 2473.9860 2463.7480 2463.7480 2451.0960 2451.0960 2435.1750
 2435.1750 2428.8640 2486.2090 2474.9540 2474.9540 2464.7200 2464.7200 2454.8360
 2454.8360 2445.5690 2445.5690 2438.7710 2478.1110 2466.6360 2466.6360 2457.3180
 2457.3180 2450.2680 2450.2680 2441.5110 2441.5110 2416.8680 2484.3080 2470.9810
 2470.9810 2459.9050 2459.9050 2451.7590 2451.7590 2442.5740 2442.5740 2422.1260
 2484.3080 2470.9810 2470.9810 2459.9050 2459.9050 2451.7590 2451.7590 2442.5740
 2442.5740 2422.1260 2486.7030 2475.8100 2475.8100 2464.6860 2464.6860 2454.2020
 2454.2020 2443.9560 2443.9560 2423.0150 2486.7030 2475.8100 2475.8100 2464.6860
 2464.6860 2454.2020 2454.2020 2443.9560 2443.9560 2423.0150 2489.7860 2478.6420
 2478.6420 2470.2060 2470.2060 2458.6450 2458.6450 2444.6890 2444.6890 2427.0420
 2489.7860 2478.6420 2478.6420 2470.2060 2470.2060 2458.6450 2458.6450 2444.6890
 2444.6890 2427.0420 2493.7150 2483.1940 2483.1940 2473.7940 2473.7940 2462.9160
 2462.9160 2445.7560 2445.7560 2427.4500 2493.7150 2483.1940 2483.1940 2473.7940
 2473.7940 2462.9160 2462.9160 2445.7560 2445.7560 2427.4500 2494.0410 2484.3260
 2484.3260 2474.5870 2474.5870 2462.0070 2462.0070 2446.2650 2446.2650 2426.7040
 2494.0410 2484.3260 2484.3260 2474.5870 2474.5870 2462.0070 2462.0070 2446.2650
 2446.2650 2426.7040 2494.0900 2483.6110 2483.6110 2473.4410 2473.4410 2460.9460
 2460.9460 2445.1270 2445.1270 2437.3770 2494.0900 2483.6110 2483.6110 2473.4410
 2473.4410 2460.9460 2460.9460 2445.1270 2445.1270 2437.3770 2495.7910 2484.4780
 2484.4780 2474.2960 2474.2960 2464.4350 2464.4350 2455.3400 2455.3400 2448.0970
 2478.1110 2466.6360 2466.6360 2457.3180 2457.3180 2450.2680 2450.2680 2441.5110
 2441.5110 2416.8680 2484.3080 2470.9810 2470.9810 2459.9050 2459.9050 2451.7590
 2451.7590 2442.5740 2442.5740 2422.1260 2484.3080 2470.9810 2470.9810 2459.9050
 2459.9050 2451.7590 2451.7590 2442.5740 2442.5740 2422.1260 2486.7030 2475.8100
 2475.8100 2464.6860 2464.6860 2454.2020 2454.2020 2443.9560 2443.9560 2423.0150
 2486.7030 2475.8100 2475.8100 2464.6860 2464.6860 2454.2020 2454.2020 2443.9560
 2443.9560 2423.0150 2489.7860 2478.6420 2478.6420 2470.2060 2470.2060 2458.6450
 2458.6450 2444.6890 2444.6890 2427.0420 2489.7860 2478.6420 2478.6420 2470.2060
 2470.2060 2458.6450 2458.6450 2444.6890 2444.6890 2427.0420 2493.7150 2483.1940
 2483.1940 2473.7940 2473.7940 2462.9160 2462.9160 2445.7560 2445.7560 2427.4500
 2493.7150 2483.1940 2483.1940 2473.7940 2473.7940 2462.9160 2462.9160 2445.7560
 2445.7560 2427.4500 2494.0410 2484.3260 2484.3260 2474.5870 2474.5870 2462.0070
 2462.0070 2446.2650 2446.2650 2426.7040 2494.0410 2484.3260 2484.3260 2474.5870
 2474.5870 2462.0070 2462.0070 2446.2650 2446.2650 2426.7040 2494.0900 2483.6110
 2483.6110 2473.4410 2473.4410 2460.9460 2460.9460 2445.1270 2445.1270 2437.3770
 2494.0900 2483.6110 2483.6110 2473.4410 2473.4410 2460.9460 2460.9460 2445.1270
 2445.1270 2437.3770 2495.7910 2484.4780 2484.4780 2474.2960 2474.2960 2464.4350
 2464.4350 2455.3400 2455.3400 2448.0970 2485.5810 2474.0040 2474.0040 2464.6340
 2464.6340 2457.5920 2457.5920 2449.0620 2449.0620 2424.3250 2491.6250 2478.3000
 2478.3000 2467.1560 2467.1560 2459.1070 2459.1070 2450.2240 2450.2240 2429.9350
 2491.6250 2478.3000 2478.3000 2467.1560 2467.1560 2459.1070 2459.1070 2450.2240
 2450.2240 2429.9350 2494.0000 2483.0690 2483.0690 2471.9190 2471.9190 2461.5250
 2461.5250 2451.4960 2451.4960 2431.1670 2494.0000 2483.0690 2483.0690 2471.9190
 2471.9190 2461.5250 2461.5250 2451.4960 2451.4960 2431.1670 2497.0310 2485.9490
 2485.9490 2477.4210 2477.4210 2466.1580 2466.1580 2452.2610 2452.2610 2433.8180
 2497.0310 2485.9490 2485.9490 2477.4210 2477.4210 2466.1580 2466.1580 2452.2610
 2452.2610 2433.8180 2500.9730 2490.6790 2490.6790 2481.0710 2481.0710 2470.4710
 2470.4710 2453.3230 2453.3230 2435.1240 2500.9730 2490.6790 2490.6790 2481.0710
 2481.0710 2470.4710 2470.4710 2453.3230 2453.3230 2435.1240 2501.3400 2491.7810
 2491.7810 2482.0700 2482.0700 2469.6310 2469.6310 2453.8680 2453.8680 2434.0740
 2501.3400 2491.7810 2491.7810 2482.0700 2482.0700 2469.6310 2469.6310 2453.8680
 2453.8680 2434.0740 2501.4330 2491.1510 2491.1510 2481.0510 2481.0510 2468.6860
 2468.6860 2452.9330 2452.9330 2444.0700 2501.4330 2491.1510 2491.1510 2481.0510
 2481.0510 2468.6860 2468.6860 2452.9330 2452.9330 2444.0700 2503.2460 2491.9250
 2491.9250 2481.8230 2481.8230 2472.0170 2472.0170 2463.0310 2463.0310 2456.9360
/


ACTNUM
 1 1 1 1 1 1 1 1 1 1
 1 1 1 1 1 1 1 1 1 1
 1 1 1 1 1 1 1 1 1 1
 1 1 1 1 1 1 1 1 1 1
 1 1 1 1 1 1 1 1 1 1
 1 1 1 1 1 1 1 1 1 1
 1 1 1 1 1 1 1 1 1 1
/

