SPECGRID
          13          13           5           1 F  /
 
COORD   
 
  0.00000      0.00000      2202.00      0.00000      0.00000      2202.00    
  300.000      0.00000      2167.80      300.000      0.00000      2167.80    
  500.000      0.00000      2122.14      500.000      0.00000      2122.14    
  650.000      0.00000      2086.25      650.000      0.00000      2086.25    
  700.000      0.00000      2080.00      700.000      0.00000      2080.00    
  750.000      0.00000      2075.90      750.000      0.00000      2075.90    
  797.619      0.00000      2072.00      797.619      0.00000      2072.00    
  802.381      0.00000      2072.00      802.381      0.00000      2072.00    
  850.000      0.00000      2075.90      850.000      0.00000      2075.90    
  900.000      0.00000      2080.00      900.000      0.00000      2080.00    
  950.000      0.00000      2086.25      950.000      0.00000      2086.25    
  1100.00      0.00000      2122.14      1100.00      0.00000      2122.14    
  1300.00      0.00000      2167.80      1300.00      0.00000      2167.80    
  1600.00      0.00000      2202.00      1600.00      0.00000      2202.00    
 
  0.00000      300.000      2182.80      0.00000      300.000      2182.80    
  300.000      300.000      2148.60      300.000      300.000      2148.60    
  500.000      300.000      2102.94      500.000      300.000      2102.94    
  650.000      300.000      2067.50      650.000      300.000      2067.50    
  700.000      300.000      2061.40      700.000      300.000      2061.40    
  750.000      300.000      2057.30      750.000      300.000      2057.30    
  797.619      300.000      2053.40      797.619      300.000      2053.40    
  802.381      300.000      2053.40      802.381      300.000      2053.40    
  850.000      300.000      2057.30      850.000      300.000      2057.30    
  900.000      300.000      2061.40      900.000      300.000      2061.40    
  950.000      300.000      2067.50      950.000      300.000      2067.50    
  1100.00      300.000      2102.94      1100.00      300.000      2102.94    
  1300.00      300.000      2148.60      1300.00      300.000      2148.60    
  1600.00      300.000      2182.80      1600.00      300.000      2182.80    
 
  0.00000      500.000      2156.86      0.00000      500.000      2156.86    
  300.000      500.000      2122.66      300.000      500.000      2122.66    
  500.000      500.000      2077.00      500.000      500.000      2077.00    
  650.000      500.000      2041.86      650.000      500.000      2041.86    
  700.000      500.000      2035.86      700.000      500.000      2035.86    
  750.000      500.000      2031.76      750.000      500.000      2031.76    
  797.619      500.000      2027.86      797.619      500.000      2027.86    
  802.381      500.000      2027.86      802.381      500.000      2027.86    
  850.000      500.000      2031.76      850.000      500.000      2031.76    
  900.000      500.000      2035.86      900.000      500.000      2035.86    
  950.000      500.000      2041.86      950.000      500.000      2041.86    
  1100.00      500.000      2077.00      1100.00      500.000      2077.00    
  1300.00      500.000      2122.66      1300.00      500.000      2122.66    
  1600.00      500.000      2156.86      1600.00      500.000      2156.86    
 
  0.00000      650.000      2136.50      0.00000      650.000      2136.50    
  300.000      650.000      2102.75      300.000      650.000      2102.75    
  500.000      650.000      2057.39      500.000      650.000      2057.39    
  650.000      650.000      2022.25      650.000      650.000      2022.25    
  700.000      650.000      2016.25      700.000      650.000      2016.25    
  750.000      650.000      2012.15      750.000      650.000      2012.15    
  797.619      650.000      2008.25      797.619      650.000      2008.25    
  802.381      650.000      2008.25      802.381      650.000      2008.25    
  850.000      650.000      2012.15      850.000      650.000      2012.15    
  900.000      650.000      2016.25      900.000      650.000      2016.25    
  950.000      650.000      2022.25      950.000      650.000      2022.25    
  1100.00      650.000      2057.39      1100.00      650.000      2057.39    
  1300.00      650.000      2102.75      1300.00      650.000      2102.75    
  1600.00      650.000      2136.50      1600.00      650.000      2136.50    
 
  0.00000      700.000      2133.00      0.00000      700.000      2133.00    
  300.000      700.000      2099.40      300.000      700.000      2099.40    
  500.000      700.000      2054.14      500.000      700.000      2054.14    
  650.000      700.000      2019.00      650.000      700.000      2019.00    
  700.000      700.000      2013.00      700.000      700.000      2013.00    
  750.000      700.000      2008.90      750.000      700.000      2008.90    
  797.619      700.000      2005.00      797.619      700.000      2005.00    
  802.381      700.000      2005.00      802.381      700.000      2005.00    
  850.000      700.000      2008.90      850.000      700.000      2008.90    
  900.000      700.000      2013.00      900.000      700.000      2013.00    
  950.000      700.000      2019.00      950.000      700.000      2019.00    
  1100.00      700.000      2054.14      1100.00      700.000      2054.14    
  1300.00      700.000      2099.40      1300.00      700.000      2099.40    
  1600.00      700.000      2133.00      1600.00      700.000      2133.00    
 
  0.00000      750.000      2130.95      0.00000      750.000      2130.95    
  300.000      750.000      2097.04      300.000      750.000      2097.04    
  500.000      750.000      2051.58      500.000      750.000      2051.58    
  650.000      750.000      2016.44      650.000      750.000      2016.44    
  700.000      750.000      2010.44      700.000      750.000      2010.44    
  750.000      750.000      2006.34      750.000      750.000      2006.34    
  797.619      750.000      2002.44      797.619      750.000      2002.44    
  802.381      750.000      2002.44      802.381      750.000      2002.44    
  850.000      750.000      2006.34      850.000      750.000      2006.34    
  900.000      750.000      2010.44      900.000      750.000      2010.44    
  950.000      750.000      2016.44      950.000      750.000      2016.44    
  1100.00      750.000      2051.58      1100.00      750.000      2051.58    
  1300.00      750.000      2097.04      1300.00      750.000      2097.04    
  1600.00      750.000      2130.95      1600.00      750.000      2130.95    
 
  0.00000      797.619      2129.00      0.00000      797.619      2129.00    
  300.000      797.619      2094.80      300.000      797.619      2094.80    
  500.000      797.619      2049.14      500.000      797.619      2049.14    
  650.000      797.619      2014.00      650.000      797.619      2014.00    
  700.000      797.619      2008.00      700.000      797.619      2008.00    
  750.000      797.619      2003.90      750.000      797.619      2003.90    
  797.619      797.619      2000.00      797.619      797.619      2000.00    
  802.381      797.619      2000.00      802.381      797.619      2000.00    
  850.000      797.619      2003.90      850.000      797.619      2003.90    
  900.000      797.619      2008.00      900.000      797.619      2008.00    
  950.000      797.619      2014.00      950.000      797.619      2014.00    
  1100.00      797.619      2049.14      1100.00      797.619      2049.14    
  1300.00      797.619      2094.80      1300.00      797.619      2094.80    
  1600.00      797.619      2129.00      1600.00      797.619      2129.00    
 
  0.00000      802.381      2129.00      0.00000      802.381      2129.00    
  300.000      802.381      2094.80      300.000      802.381      2094.80    
  500.000      802.381      2049.14      500.000      802.381      2049.14    
  650.000      802.381      2014.00      650.000      802.381      2014.00    
  700.000      802.381      2008.00      700.000      802.381      2008.00    
  750.000      802.381      2003.90      750.000      802.381      2003.90    
  797.619      802.381      2000.00      797.619      802.381      2000.00    
  802.381      802.381      2000.00      802.381      802.381      2000.00    
  850.000      802.381      2003.90      850.000      802.381      2003.90    
  900.000      802.381      2008.00      900.000      802.381      2008.00    
  950.000      802.381      2014.00      950.000      802.381      2014.00    
  1100.00      802.381      2049.14      1100.00      802.381      2049.14    
  1300.00      802.381      2094.80      1300.00      802.381      2094.80    
  1600.00      802.381      2129.00      1600.00      802.381      2129.00    
 
  0.00000      850.000      2130.95      0.00000      850.000      2130.95    
  300.000      850.000      2097.04      300.000      850.000      2097.04    
  500.000      850.000      2051.58      500.000      850.000      2051.58    
  650.000      850.000      2016.44      650.000      850.000      2016.44    
  700.000      850.000      2010.44      700.000      850.000      2010.44    
  750.000      850.000      2006.34      750.000      850.000      2006.34    
  797.619      850.000      2002.44      797.619      850.000      2002.44    
  802.381      850.000      2002.44      802.381      850.000      2002.44    
  850.000      850.000      2006.34      850.000      850.000      2006.34    
  900.000      850.000      2010.44      900.000      850.000      2010.44    
  950.000      850.000      2016.44      950.000      850.000      2016.44    
  1100.00      850.000      2051.58      1100.00      850.000      2051.58    
  1300.00      850.000      2097.04      1300.00      850.000      2097.04    
  1600.00      850.000      2130.95      1600.00      850.000      2130.95    
 
  0.00000      900.000      2133.00      0.00000      900.000      2133.00    
  300.000      900.000      2099.40      300.000      900.000      2099.40    
  500.000      900.000      2054.14      500.000      900.000      2054.14    
  650.000      900.000      2019.00      650.000      900.000      2019.00    
  700.000      900.000      2013.00      700.000      900.000      2013.00    
  750.000      900.000      2008.90      750.000      900.000      2008.90    
  797.619      900.000      2005.00      797.619      900.000      2005.00    
  802.381      900.000      2005.00      802.381      900.000      2005.00    
  850.000      900.000      2008.90      850.000      900.000      2008.90    
  900.000      900.000      2013.00      900.000      900.000      2013.00    
  950.000      900.000      2019.00      950.000      900.000      2019.00    
  1100.00      900.000      2054.14      1100.00      900.000      2054.14    
  1300.00      900.000      2099.40      1300.00      900.000      2099.40    
  1600.00      900.000      2133.00      1600.00      900.000      2133.00    
 
  0.00000      950.000      2136.50      0.00000      950.000      2136.50    
  300.000      950.000      2102.75      300.000      950.000      2102.75    
  500.000      950.000      2057.39      500.000      950.000      2057.39    
  650.000      950.000      2022.25      650.000      950.000      2022.25    
  700.000      950.000      2016.25      700.000      950.000      2016.25    
  750.000      950.000      2012.15      750.000      950.000      2012.15    
  797.619      950.000      2008.25      797.619      950.000      2008.25    
  802.381      950.000      2008.25      802.381      950.000      2008.25    
  850.000      950.000      2012.15      850.000      950.000      2012.15    
  900.000      950.000      2016.25      900.000      950.000      2016.25    
  950.000      950.000      2022.25      950.000      950.000      2022.25    
  1100.00      950.000      2057.39      1100.00      950.000      2057.39    
  1300.00      950.000      2102.75      1300.00      950.000      2102.75    
  1600.00      950.000      2136.50      1600.00      950.000      2136.50    
 
  0.00000      1100.00      2156.86      0.00000      1100.00      2156.86    
  300.000      1100.00      2122.66      300.000      1100.00      2122.66    
  500.000      1100.00      2077.00      500.000      1100.00      2077.00    
  650.000      1100.00      2041.86      650.000      1100.00      2041.86    
  700.000      1100.00      2035.86      700.000      1100.00      2035.86    
  750.000      1100.00      2031.76      750.000      1100.00      2031.76    
  797.619      1100.00      2027.86      797.619      1100.00      2027.86    
  802.381      1100.00      2027.86      802.381      1100.00      2027.86    
  850.000      1100.00      2031.76      850.000      1100.00      2031.76    
  900.000      1100.00      2035.86      900.000      1100.00      2035.86    
  950.000      1100.00      2041.86      950.000      1100.00      2041.86    
  1100.00      1100.00      2077.00      1100.00      1100.00      2077.00    
  1300.00      1100.00      2122.66      1300.00      1100.00      2122.66    
  1600.00      1100.00      2156.86      1600.00      1100.00      2156.86    
 
  0.00000      1300.00      2182.80      0.00000      1300.00      2182.80    
  300.000      1300.00      2148.60      300.000      1300.00      2148.60    
  500.000      1300.00      2102.94      500.000      1300.00      2102.94    
  650.000      1300.00      2067.50      650.000      1300.00      2067.50    
  700.000      1300.00      2061.40      700.000      1300.00      2061.40    
  750.000      1300.00      2057.30      750.000      1300.00      2057.30    
  797.619      1300.00      2053.40      797.619      1300.00      2053.40    
  802.381      1300.00      2053.40      802.381      1300.00      2053.40    
  850.000      1300.00      2057.30      850.000      1300.00      2057.30    
  900.000      1300.00      2061.40      900.000      1300.00      2061.40    
  950.000      1300.00      2067.50      950.000      1300.00      2067.50    
  1100.00      1300.00      2102.94      1100.00      1300.00      2102.94    
  1300.00      1300.00      2148.60      1300.00      1300.00      2148.60    
  1600.00      1300.00      2182.80      1600.00      1300.00      2182.80    
 
  0.00000      1600.00      2202.00      0.00000      1600.00      2202.00    
  300.000      1600.00      2167.80      300.000      1600.00      2167.80    
  500.000      1600.00      2122.14      500.000      1600.00      2122.14    
  650.000      1600.00      2086.25      650.000      1600.00      2086.25    
  700.000      1600.00      2080.00      700.000      1600.00      2080.00    
  750.000      1600.00      2075.90      750.000      1600.00      2075.90    
  797.619      1600.00      2072.00      797.619      1600.00      2072.00    
  802.381      1600.00      2072.00      802.381      1600.00      2072.00    
  850.000      1600.00      2075.90      850.000      1600.00      2075.90    
  900.000      1600.00      2080.00      900.000      1600.00      2080.00    
  950.000      1600.00      2086.25      950.000      1600.00      2086.25    
  1100.00      1600.00      2122.14      1100.00      1600.00      2122.14    
  1300.00      1600.00      2167.80      1300.00      1600.00      2167.80    
  1600.00      1600.00      2202.00      1600.00      1600.00      2202.00    
 /
 
ZCORN   
 
  2202.00      2167.80      2167.80      2122.14      2122.14      2086.25    
  2086.25      2080.00      2080.00      2075.90      2075.90      2072.00    
  2072.00      2072.00      2072.00      2075.90      2075.90      2080.00    
  2080.00      2086.25      2086.25      2122.14      2122.14      2167.80    
  2167.80      2202.00    
  2182.80      2148.60      2148.60      2102.94      2102.94      2067.50    
  2067.50      2061.40      2061.40      2057.30      2057.30      2053.40    
  2053.40      2053.40      2053.40      2057.30      2057.30      2061.40    
  2061.40      2067.50      2067.50      2102.94      2102.94      2148.60    
  2148.60      2182.80    
  2182.80      2148.60      2148.60      2102.94      2102.94      2067.50    
  2067.50      2061.40      2061.40      2057.30      2057.30      2053.40    
  2053.40      2053.40      2053.40      2057.30      2057.30      2061.40    
  2061.40      2067.50      2067.50      2102.94      2102.94      2148.60    
  2148.60      2182.80    
  2156.86      2122.66      2122.66      2077.00      2077.00      2041.86    
  2041.86      2035.86      2035.86      2031.76      2031.76      2027.86    
  2027.86      2027.86      2027.86      2031.76      2031.76      2035.86    
  2035.86      2041.86      2041.86      2077.00      2077.00      2122.66    
  2122.66      2156.86    
  2156.86      2122.66      2122.66      2077.00      2077.00      2041.86    
  2041.86      2035.86      2035.86      2031.76      2031.76      2027.86    
  2027.86      2027.86      2027.86      2031.76      2031.76      2035.86    
  2035.86      2041.86      2041.86      2077.00      2077.00      2122.66    
  2122.66      2156.86    
  2136.50      2102.75      2102.75      2057.39      2057.39      2022.25    
  2022.25      2016.25      2016.25      2012.15      2012.15      2008.25    
  2008.25      2008.25      2008.25      2012.15      2012.15      2016.25    
  2016.25      2022.25      2022.25      2057.39      2057.39      2102.75    
  2102.75      2136.50    
  2136.50      2102.75      2102.75      2057.39      2057.39      2022.25    
  2022.25      2016.25      2016.25      2012.15      2012.15      2008.25    
  2008.25      2008.25      2008.25      2012.15      2012.15      2016.25    
  2016.25      2022.25      2022.25      2057.39      2057.39      2102.75    
  2102.75      2136.50    
  2133.00      2099.40      2099.40      2054.14      2054.14      2019.00    
  2019.00      2013.00      2013.00      2008.90      2008.90      2005.00    
  2005.00      2005.00      2005.00      2008.90      2008.90      2013.00    
  2013.00      2019.00      2019.00      2054.14      2054.14      2099.40    
  2099.40      2133.00    
  2133.00      2099.40      2099.40      2054.14      2054.14      2019.00    
  2019.00      2013.00      2013.00      2008.90      2008.90      2005.00    
  2005.00      2005.00      2005.00      2008.90      2008.90      2013.00    
  2013.00      2019.00      2019.00      2054.14      2054.14      2099.40    
  2099.40      2133.00    
  2130.95      2097.04      2097.04      2051.58      2051.58      2016.44    
  2016.44      2010.44      2010.44      2006.34      2006.34      2002.44    
  2002.44      2002.44      2002.44      2006.34      2006.34      2010.44    
  2010.44      2016.44      2016.44      2051.58      2051.58      2097.04    
  2097.04      2130.95    
  2130.95      2097.04      2097.04      2051.58      2051.58      2016.44    
  2016.44      2010.44      2010.44      2006.34      2006.34      2002.44    
  2002.44      2002.44      2002.44      2006.34      2006.34      2010.44    
  2010.44      2016.44      2016.44      2051.58      2051.58      2097.04    
  2097.04      2130.95    
  2129.00      2094.80      2094.80      2049.14      2049.14      2014.00    
  2014.00      2008.00      2008.00      2003.90      2003.90      2000.00    
  2000.00      2000.00      2000.00      2003.90      2003.90      2008.00    
  2008.00      2014.00      2014.00      2049.14      2049.14      2094.80    
  2094.80      2129.00    
  2129.00      2094.80      2094.80      2049.14      2049.14      2014.00    
  2014.00      2008.00      2008.00      2003.90      2003.90      2000.00    
  2000.00      2000.00      2000.00      2003.90      2003.90      2008.00    
  2008.00      2014.00      2014.00      2049.14      2049.14      2094.80    
  2094.80      2129.00    
  2129.00      2094.80      2094.80      2049.14      2049.14      2014.00    
  2014.00      2008.00      2008.00      2003.90      2003.90      2000.00    
  2000.00      2000.00      2000.00      2003.90      2003.90      2008.00    
  2008.00      2014.00      2014.00      2049.14      2049.14      2094.80    
  2094.80      2129.00    
  2129.00      2094.80      2094.80      2049.14      2049.14      2014.00    
  2014.00      2008.00      2008.00      2003.90      2003.90      2000.00    
  2000.00      2000.00      2000.00      2003.90      2003.90      2008.00    
  2008.00      2014.00      2014.00      2049.14      2049.14      2094.80    
  2094.80      2129.00    
  2130.95      2097.04      2097.04      2051.58      2051.58      2016.44    
  2016.44      2010.44      2010.44      2006.34      2006.34      2002.44    
  2002.44      2002.44      2002.44      2006.34      2006.34      2010.44    
  2010.44      2016.44      2016.44      2051.58      2051.58      2097.04    
  2097.04      2130.95    
  2130.95      2097.04      2097.04      2051.58      2051.58      2016.44    
  2016.44      2010.44      2010.44      2006.34      2006.34      2002.44    
  2002.44      2002.44      2002.44      2006.34      2006.34      2010.44    
  2010.44      2016.44      2016.44      2051.58      2051.58      2097.04    
  2097.04      2130.95    
  2133.00      2099.40      2099.40      2054.14      2054.14      2019.00    
  2019.00      2013.00      2013.00      2008.90      2008.90      2005.00    
  2005.00      2005.00      2005.00      2008.90      2008.90      2013.00    
  2013.00      2019.00      2019.00      2054.14      2054.14      2099.40    
  2099.40      2133.00    
  2133.00      2099.40      2099.40      2054.14      2054.14      2019.00    
  2019.00      2013.00      2013.00      2008.90      2008.90      2005.00    
  2005.00      2005.00      2005.00      2008.90      2008.90      2013.00    
  2013.00      2019.00      2019.00      2054.14      2054.14      2099.40    
  2099.40      2133.00    
  2136.50      2102.75      2102.75      2057.39      2057.39      2022.25    
  2022.25      2016.25      2016.25      2012.15      2012.15      2008.25    
  2008.25      2008.25      2008.25      2012.15      2012.15      2016.25    
  2016.25      2022.25      2022.25      2057.39      2057.39      2102.75    
  2102.75      2136.50    
  2136.50      2102.75      2102.75      2057.39      2057.39      2022.25    
  2022.25      2016.25      2016.25      2012.15      2012.15      2008.25    
  2008.25      2008.25      2008.25      2012.15      2012.15      2016.25    
  2016.25      2022.25      2022.25      2057.39      2057.39      2102.75    
  2102.75      2136.50    
  2156.86      2122.66      2122.66      2077.00      2077.00      2041.86    
  2041.86      2035.86      2035.86      2031.76      2031.76      2027.86    
  2027.86      2027.86      2027.86      2031.76      2031.76      2035.86    
  2035.86      2041.86      2041.86      2077.00      2077.00      2122.66    
  2122.66      2156.86    
  2156.86      2122.66      2122.66      2077.00      2077.00      2041.86    
  2041.86      2035.86      2035.86      2031.76      2031.76      2027.86    
  2027.86      2027.86      2027.86      2031.76      2031.76      2035.86    
  2035.86      2041.86      2041.86      2077.00      2077.00      2122.66    
  2122.66      2156.86    
  2182.80      2148.60      2148.60      2102.94      2102.94      2067.50    
  2067.50      2061.40      2061.40      2057.30      2057.30      2053.40    
  2053.40      2053.40      2053.40      2057.30      2057.30      2061.40    
  2061.40      2067.50      2067.50      2102.94      2102.94      2148.60    
  2148.60      2182.80    
  2182.80      2148.60      2148.60      2102.94      2102.94      2067.50    
  2067.50      2061.40      2061.40      2057.30      2057.30      2053.40    
  2053.40      2053.40      2053.40      2057.30      2057.30      2061.40    
  2061.40      2067.50      2067.50      2102.94      2102.94      2148.60    
  2148.60      2182.80    
  2202.00      2167.80      2167.80      2122.14      2122.14      2086.25    
  2086.25      2080.00      2080.00      2075.90      2075.90      2072.00    
  2072.00      2072.00      2072.00      2075.90      2075.90      2080.00    
  2080.00      2086.25      2086.25      2122.14      2122.14      2167.80    
  2167.80      2202.00    
 
  2222.00      2187.80      2187.80      2142.14      2142.14      2106.25    
  2106.25      2100.00      2100.00      2095.90      2095.90      2092.00    
  2092.00      2092.00      2092.00      2095.90      2095.90      2100.00    
  2100.00      2106.25      2106.25      2142.14      2142.14      2187.80    
  2187.80      2222.00    
  2202.80      2168.60      2168.60      2122.94      2122.94      2087.50    
  2087.50      2081.40      2081.40      2077.30      2077.30      2073.40    
  2073.40      2073.40      2073.40      2077.30      2077.30      2081.40    
  2081.40      2087.50      2087.50      2122.94      2122.94      2168.60    
  2168.60      2202.80    
  2202.80      2168.60      2168.60      2122.94      2122.94      2087.50    
  2087.50      2081.40      2081.40      2077.30      2077.30      2073.40    
  2073.40      2073.40      2073.40      2077.30      2077.30      2081.40    
  2081.40      2087.50      2087.50      2122.94      2122.94      2168.60    
  2168.60      2202.80    
  2176.86      2142.66      2142.66      2097.00      2097.00      2061.86    
  2061.86      2055.86      2055.86      2051.76      2051.76      2047.86    
  2047.86      2047.86      2047.86      2051.76      2051.76      2055.86    
  2055.86      2061.86      2061.86      2097.00      2097.00      2142.66    
  2142.66      2176.86    
  2176.86      2142.66      2142.66      2097.00      2097.00      2061.86    
  2061.86      2055.86      2055.86      2051.76      2051.76      2047.86    
  2047.86      2047.86      2047.86      2051.76      2051.76      2055.86    
  2055.86      2061.86      2061.86      2097.00      2097.00      2142.66    
  2142.66      2176.86    
  2156.50      2122.75      2122.75      2077.39      2077.39      2042.25    
  2042.25      2036.25      2036.25      2032.15      2032.15      2028.25    
  2028.25      2028.25      2028.25      2032.15      2032.15      2036.25    
  2036.25      2042.25      2042.25      2077.39      2077.39      2122.75    
  2122.75      2156.50    
  2156.50      2122.75      2122.75      2077.39      2077.39      2042.25    
  2042.25      2036.25      2036.25      2032.15      2032.15      2028.25    
  2028.25      2028.25      2028.25      2032.15      2032.15      2036.25    
  2036.25      2042.25      2042.25      2077.39      2077.39      2122.75    
  2122.75      2156.50    
  2153.00      2119.40      2119.40      2074.14      2074.14      2039.00    
  2039.00      2033.00      2033.00      2028.90      2028.90      2025.00    
  2025.00      2025.00      2025.00      2028.90      2028.90      2033.00    
  2033.00      2039.00      2039.00      2074.14      2074.14      2119.40    
  2119.40      2153.00    
  2153.00      2119.40      2119.40      2074.14      2074.14      2039.00    
  2039.00      2033.00      2033.00      2028.90      2028.90      2025.00    
  2025.00      2025.00      2025.00      2028.90      2028.90      2033.00    
  2033.00      2039.00      2039.00      2074.14      2074.14      2119.40    
  2119.40      2153.00    
  2150.95      2117.04      2117.04      2071.58      2071.58      2036.44    
  2036.44      2030.44      2030.44      2026.34      2026.34      2022.44    
  2022.44      2022.44      2022.44      2026.34      2026.34      2030.44    
  2030.44      2036.44      2036.44      2071.58      2071.58      2117.04    
  2117.04      2150.95    
  2150.95      2117.04      2117.04      2071.58      2071.58      2036.44    
  2036.44      2030.44      2030.44      2026.34      2026.34      2022.44    
  2022.44      2022.44      2022.44      2026.34      2026.34      2030.44    
  2030.44      2036.44      2036.44      2071.58      2071.58      2117.04    
  2117.04      2150.95    
  2149.00      2114.80      2114.80      2069.14      2069.14      2034.00    
  2034.00      2028.00      2028.00      2023.90      2023.90      2020.00    
  2020.00      2020.00      2020.00      2023.90      2023.90      2028.00    
  2028.00      2034.00      2034.00      2069.14      2069.14      2114.80    
  2114.80      2149.00    
  2149.00      2114.80      2114.80      2069.14      2069.14      2034.00    
  2034.00      2028.00      2028.00      2023.90      2023.90      2020.00    
  2020.00      2020.00      2020.00      2023.90      2023.90      2028.00    
  2028.00      2034.00      2034.00      2069.14      2069.14      2114.80    
  2114.80      2149.00    
  2149.00      2114.80      2114.80      2069.14      2069.14      2034.00    
  2034.00      2028.00      2028.00      2023.90      2023.90      2020.00    
  2020.00      2020.00      2020.00      2023.90      2023.90      2028.00    
  2028.00      2034.00      2034.00      2069.14      2069.14      2114.80    
  2114.80      2149.00    
  2149.00      2114.80      2114.80      2069.14      2069.14      2034.00    
  2034.00      2028.00      2028.00      2023.90      2023.90      2020.00    
  2020.00      2020.00      2020.00      2023.90      2023.90      2028.00    