-- This reservoir simulation deck is made available under the Open Database
-- License: http://opendatacommons.org/licenses/odbl/1.0/. Any rights in
-- individual contents of the database are licensed under the Database Contents
-- License: http://opendatacommons.org/licenses/dbcl/1.0/

-- Copyright (C) 2020 Equinor

SPECGRID
 30 4 11 1 F / 

COORD
  2000.0000  2000.0000  2000.0000   1999.8430  1999.9607  2039.9741 
  2099.9391  2000.0000  2003.4899   2099.7820  1999.9607  2043.4641 
  2199.8782  2000.0000  2006.9799   2199.7211  1999.9607  2046.9540 
  2299.8172  2000.0000  2010.4698   2299.6602  1999.9607  2050.4440 
  2399.7563  2000.0000  2013.9598   2399.5993  1999.9607  2053.9339 
  2499.6954  2000.0000  2017.4497   2499.5384  1999.9607  2057.4239 
  2599.6345  2000.0000  2020.9397   2599.4774  1999.9607  2060.9138 
  2699.5736  2000.0000  2024.4296   2699.4165  1999.9607  2064.4038 
  2799.5127  2000.0000  2027.9196   2799.3556  1999.9607  2067.8937 
  2899.4517  2000.0000  2031.4095   2899.2947  1999.9607  2071.3837 
  2999.3908  2000.0000  2034.8995   2999.2338  1999.9607  2074.8736 
  3099.3299  2000.0000  2038.3894   3099.1729  1999.9607  2078.3636 
  3199.2690  2000.0000  2041.8794   3199.1119  1999.9607  2081.8535 
  3299.2081  2000.0000  2045.3693   3299.0510  1999.9607  2085.3435 
  3399.1472  2000.0000  2048.8593   3398.9901  1999.9607  2088.8334 
  3499.0862  2000.0000  2052.3492   3498.9292  1999.9607  2092.3234 
  3599.0253  2000.0000  2055.8392   3598.8683  1999.9607  2095.8133 
  3698.9644  2000.0000  2059.3291   3698.8074  1999.9607  2099.3033 
  3798.9035  2000.0000  2062.8191   3798.7464  1999.9607  2102.7932 
  3898.8426  2000.0000  2066.3090   3898.6855  1999.9607  2106.2832 
  3998.7817  2000.0000  2069.7990   3998.6246  1999.9607  2109.7731 
  4098.7207  2000.0000  2073.2889   4098.5637  1999.9607  2113.2631 
  4198.6598  2000.0000  2076.7789   4198.5028  1999.9607  2116.7530 
  4298.5989  2000.0000  2080.2688   4298.4419  1999.9607  2120.2430 
  4398.5380  2000.0000  2083.7588   4398.3809  1999.9607  2123.7329 
  4498.4771  2000.0000  2087.2487   4498.3200  1999.9607  2127.2229 
  4598.4162  2000.0000  2090.7387   4598.2591  1999.9607  2130.7128 
  4698.3552  2000.0000  2094.2286   4698.1982  1999.9607  2134.2028 
  4798.2943  2000.0000  2097.7186   4798.1373  1999.9607  2137.6927 
  4898.2334  2000.0000  2101.2085   4898.0764  1999.9607  2141.1827 
  4998.1725  2000.0000  2104.6985   4998.0154  1999.9607  2144.6726 
  2000.0000  2099.9962  2000.8727   1999.8430  2099.9569  2040.8468 
  2099.9391  2099.9962  2004.3626   2099.7820  2099.9569  2044.3367 
  2199.8782  2099.9962  2007.8526   2199.7211  2099.9569  2047.8267 
  2299.8172  2099.9962  2011.3425   2299.6602  2099.9569  2051.3166 
  2399.7563  2099.9962  2014.8325   2399.5993  2099.9569  2054.8066 
  2499.6954  2099.9962  2018.3224   2499.5384  2099.9569  2058.2965 
  2599.6345  2099.9962  2021.8124   2599.4774  2099.9569  2061.7865 
  2699.5736  2099.9962  2025.3023   2699.4165  2099.9569  2065.2764 
  2799.5127  2099.9962  2028.7923   2799.3556  2099.9569  2068.7664 
  2899.4517  2099.9962  2032.2822   2899.2947  2099.9569  2072.2563 
  2999.3908  2099.9962  2035.7722   2999.2338  2099.9569  2075.7463 
  3099.3299  2099.9962  2039.2621   3099.1729  2099.9569  2079.2362 
  3199.2690  2099.9962  2042.7520   3199.1119  2099.9569  2082.7262 
  3299.2081  2099.9962  2046.2420   3299.0510  2099.9569  2086.2161 
  3399.1472  2099.9962  2049.7319   3398.9901  2099.9569  2089.7061 
  3499.0862  2099.9962  2053.2219   3498.9292  2099.9569  2093.1960 
  3599.0253  2099.9962  2056.7118   3598.8683  2099.9569  2096.6860 
  3698.9644  2099.9962  2060.2018   3698.8074  2099.9569  2100.1759 
  3798.9035  2099.9962  2063.6917   3798.7464  2099.9569  2103.6659 
  3898.8426  2099.9962  2067.1817   3898.6855  2099.9569  2107.1558 
  3998.7817  2099.9962  2070.6716   3998.6246  2099.9569  2110.6458 
  4098.7207  2099.9962  2074.1616   4098.5637  2099.9569  2114.1357 
  4198.6598  2099.9962  2077.6515   4198.5028  2099.9569  2117.6257 
  4298.5989  2099.9962  2081.1415   4298.4419  2099.9569  2121.1156 
  4398.5380  2099.9962  2084.6314   4398.3809  2099.9569  2124.6056 
  4498.4771  2099.9962  2088.1214   4498.3200  2099.9569  2128.0955 
  4598.4162  2099.9962  2091.6113   4598.2591  2099.9569  2131.5855 
  4698.3552  2099.9962  2095.1013   4698.1982  2099.9569  2135.0754 
  4798.2943  2099.9962  2098.5912   4798.1373  2099.9569  2138.5654 
  4898.2334  2099.9962  2102.0812   4898.0764  2099.9569  2142.0553 
  4998.1725  2099.9962  2105.5711   4998.0154  2099.9569  2145.5453 
  2000.0000  2199.9924  2001.7453   1999.8430  2199.9531  2041.7194 
  2099.9391  2199.9924  2005.2353   2099.7820  2199.9531  2045.2094 
  2199.8782  2199.9924  2008.7252   2199.7211  2199.9531  2048.6993 
  2299.8172  2199.9924  2012.2152   2299.6602  2199.9531  2052.1893 
  2399.7563  2199.9924  2015.7051   2399.5993  2199.9531  2055.6792 
  2499.6954  2199.9924  2019.1951   2499.5384  2199.9531  2059.1692 
  2599.6345  2199.9924  2022.6850   2599.4774  2199.9531  2062.6591 
  2699.5736  2199.9924  2026.1750   2699.4165  2199.9531  2066.1491 
  2799.5127  2199.9924  2029.6649   2799.3556  2199.9531  2069.6390 
  2899.4517  2199.9924  2033.1549   2899.2947  2199.9531  2073.1290 
  2999.3908  2199.9924  2036.6448   2999.2338  2199.9531  2076.6189 
  3099.3299  2199.9924  2040.1348   3099.1729  2199.9531  2080.1089 
  3199.2690  2199.9924  2043.6247   3199.1119  2199.9531  2083.5988 
  3299.2081  2199.9924  2047.1147   3299.0510  2199.9531  2087.0888 
  3399.1472  2199.9924  2050.6046   3398.9901  2199.9531  2090.5787 
  3499.0862  2199.9924  2054.0946   3498.9292  2199.9531  2094.0687 
  3599.0253  2199.9924  2057.5845   3598.8683  2199.9531  2097.5586 
  3698.9644  2199.9924  2061.0745   3698.8074  2199.9531  2101.0486 
  3798.9035  2199.9924  2064.5644   3798.7464  2199.9531  2104.5385 
  3898.8426  2199.9924  2068.0544   3898.6855  2199.9531  2108.0285 
  3998.7817  2199.9924  2071.5443   3998.6246  2199.9531  2111.5184 
  4098.7207  2199.9924  2075.0343   4098.5637  2199.9531  2115.0084 
  4198.6598  2199.9924  2078.5242   4198.5028  2199.9531  2118.4983 
  4298.5989  2199.9924  2082.0141   4298.4419  2199.9531  2121.9883 
  4398.5380  2199.9924  2085.5041   4398.3809  2199.9531  2125.4782 
  4498.4771  2199.9924  2088.9940   4498.3200  2199.9531  2128.9682 
  4598.4162  2199.9924  2092.4840   4598.2591  2199.9531  2132.4581 
  4698.3552  2199.9924  2095.9739   4698.1982  2199.9531  2135.9481 
  4798.2943  2199.9924  2099.4639   4798.1373  2199.9531  2139.4380 
  4898.2334  2199.9924  2102.9538   4898.0764  2199.9531  2142.9280 
  4998.1725  2199.9924  2106.4438   4998.0154  2199.9531  2146.4179 
  2000.0000  2299.9886  2002.6180   1999.8430  2299.9493  2042.5921 
  2099.9391  2299.9886  2006.1079   2099.7820  2299.9493  2046.0820 
  2199.8782  2299.9886  2009.5979   2199.7211  2299.9493  2049.5720 
  2299.8172  2299.9886  2013.0878   2299.6602  2299.9493  2053.0619 
  2399.7563  2299.9886  2016.5778   2399.5993  2299.9493  2056.5519 
  2499.6954  2299.9886  2020.0677   2499.5384  2299.9493  2060.0418 
  2599.6345  2299.9886  2023.5577   2599.4774  2299.9493  2063.5318 
  2699.5736  2299.9886  2027.0476   2699.4165  2299.9493  2067.0217 
  2799.5127  2299.9886  2030.5376   2799.3556  2299.9493  2070.5117 
  2899.4517  2299.9886  2034.0275   2899.2947  2299.9493  2074.0016 
  2999.3908  2299.9886  2037.5175   2999.2338  2299.9493  2077.4916 
  3099.3299  2299.9886  2041.0074   3099.1729  2299.9493  2080.9815 
  3199.2690  2299.9886  2044.4974   3199.1119  2299.9493  2084.4715 
  3299.2081  2299.9886  2047.9873   3299.0510  2299.9493  2087.9614 
  3399.1472  2299.9886  2051.4773   3398.9901  2299.9493  2091.4514 
  3499.0862  2299.9886  2054.9672   3498.9292  2299.9493  2094.9413 
  3599.0253  2299.9886  2058.4572   3598.8683  2299.9493  2098.4313 
  3698.9644  2299.9886  2061.9471   3698.8074  2299.9493  2101.9212 
  3798.9035  2299.9886  2065.4371   3798.7464  2299.9493  2105.4112 
  3898.8426  2299.9886  2068.9270   3898.6855  2299.9493  2108.9011 
  3998.7817  2299.9886  2072.4170   3998.6246  2299.9493  2112.3911 
  4098.7207  2299.9886  2075.9069   4098.5637  2299.9493  2115.8810 
  4198.6598  2299.9886  2079.3969   4198.5028  2299.9493  2119.3710 
  4298.5989  2299.9886  2082.8868   4298.4419  2299.9493  2122.8609 
  4398.5380  2299.9886  2086.3768   4398.3809  2299.9493  2126.3509 
  4498.4771  2299.9886  2089.8667   4498.3200  2299.9493  2129.8408 
  4598.4162  2299.9886  2093.3567   4598.2591  2299.9493  2133.3308 
  4698.3552  2299.9886  2096.8466   4698.1982  2299.9493  2136.8207 
  4798.2943  2299.9886  2100.3366   4798.1373  2299.9493  2140.3107 
  4898.2334  2299.9886  2103.8265   4898.0764  2299.9493  2143.8006 
  4998.1725  2299.9886  2107.3165   4998.0154  2299.9493  2147.2906 
  2000.0000  2399.9848  2003.4906   1999.8430  2399.9455  2043.4647 
  2099.9391  2399.9848  2006.9806   2099.7820  2399.9455  2046.9547 
  2199.8782  2399.9848  2010.4705   2199.7211  2399.9455  2050.4446 
  2299.8172  2399.9848  2013.9605   2299.6602  2399.9455  2053.9346 
  2399.7563  2399.9848  2017.4504   2399.5993  2399.9455  2057.4245 
  2499.6954  2399.9848  2020.9404   2499.5384  2399.9455  2060.9145 
  2599.6345  2399.9848  2024.4303   2599.4774  2399.9455  2064.4044 
  2699.5736  2399.9848  2027.9203   2699.4165  2399.9455  2067.8944 
  2799.5127  2399.9848  2031.4102   2799.3556  2399.9455  2071.3843 
  2899.4517  2399.9848  2034.9002   2899.2947  2399.9455  2074.8743 
  2999.3908  2399.9848  2038.3901   2999.2338  2399.9455  2078.3642 
  3099.3299  2399.9848  2041.8801   3099.1729  2399.9455  2081.8542 
  3199.2690  2399.9848  2045.3700   3199.1119  2399.9455  2085.3441 
  3299.2081  2399.9848  2048.8600   3299.0510  2399.9455  2088.8341 
  3399.1472  2399.9848  2052.3499   3398.9901  2399.9455  2092.3240 
  3499.0862  2399.9848  2055.8399   3498.9292  2399.9455  2095.8140 
  3599.0253  2399.9848  2059.3298   3598.8683  2399.9455  2099.3039 
  3698.9644  2399.9848  2062.8198   3698.8074  2399.9455  2102.7939 
  3798.9035  2399.9848  2066.3097   3798.7464  2399.9455  2106.2838 
  3898.8426  2399.9848  2069.7997   3898.6855  2399.9455  2109.7738 
  3998.7817  2399.9848  2073.2896   3998.6246  2399.9455  2113.2637 
  4098.7207  2399.9848  2076.7796   4098.5637  2399.9455  2116.7537 
  4198.6598  2399.9848  2080.2695   4198.5028  2399.9455  2120.2436 
  4298.5989  2399.9848  2083.7595   4298.4419  2399.9455  2123.7336 
  4398.5380  2399.9848  2087.2494   4398.3809  2399.9455  2127.2235 
  4498.4771  2399.9848  2090.7394   4498.3200  2399.9455  2130.7135 
  4598.4162  2399.9848  2094.2293   4598.2591  2399.9455  2134.2034 
  4698.3552  2399.9848  2097.7193   4698.1982  2399.9455  2137.6934 
  4798.2943  2399.9848  2101.2092   4798.1373  2399.9455  2141.1833 
  4898.2334  2399.9848  2104.6992   4898.0764  2399.9455  2144.6733 
  4998.1725  2399.9848  2108.1891   4998.0154  2399.9455  2148.1632 
/ 

ZCORN
  2000.0000  2003.4899  2003.4899  2006.9799  2006.9799  2010.4698
  2010.4698  2013.9598  2013.9598  2017.4497  2017.4497  2020.9397
  2020.9397  2024.4296  2024.4296  2027.9196  2027.9196  2031.4095
  2031.4095  2034.8995  2034.8995  2038.3894  2038.3894  2041.8794
  2041.8794  2045.3693  2045.3693  2048.8593  2048.8593  2052.3492
  2052.3492  2055.8392  2055.8392  2059.3291  2059.3291  2062.8191
  2062.8191  2066.3090  2066.3090  2069.7990  2069.7990  2073.2889
  2073.2889  2076.7789  2076.7789  2080.2688  2080.2688  2083.7588
  2083.7588  2087.2487  2087.2487  2090.7387  2090.7387  2094.2286
  2094.2286  2097.7186  2097.7186  2101.2085  2101.2085  2104.6985
  2000.8727  2004.3626  2004.3626  2007.8526  2007.8526  2011.3425
  2011.3425  2014.8325  2014.8325  2018.3224  2018.3224  2021.8124
  2021.8124  2025.3023  2025.3023  2028.7923  2028.7923  2032.2822
  2032.2822  2035.7722  2035.7722  2039.2621  2039.2621  2042.7520
  2042.7520  2046.2420  2046.2420  2049.7319  2049.7319  2053.2219
  2053.2219  2056.7118  2056.7118  2060.2018  2060.2018  2063.6917
  2063.6917  2067.1817  2067.1817  2070.6716  2070.6716  2074.1616
  2074.1616  2077.6515  2077.6515  2081.1415  2081.1415  2084.6314
  2084.6314  2088.1214  2088.1214  2091.6113  2091.6113  2095.1013
  2095.1013  2098.5912  2098.5912  2102.0812  2102.0812  2105.5711
  2000.8727  2004.3626  2004.3626  2007.8526  2007.8526  2011.3425
  2011.3425  2014.8325  2014.8325  2018.3224  2018.3224  2021.8124
  2021.8124  2025.3023  2025.3023  2028.7923  2028.7923  2032.2822
  2032.2822  2035.7722  2035.7722  2039.2621  2039.2621  2042.7520
  2042.7520  2046.2420  2046.2420  2049.7319  2049.7319  2053.2219
  2053.2219  2056.7118  2056.7118  2060.2018  2060.2018  2063.6917
  2063.6917  2067.1817  2067.1817  2070.6716  2070.6716  2074.1616
  2074.1616  2077.6515  2077.6515  2081.1415  2081.1415  2084.6314
  2084.6314  2088.1214  2088.1214  2091.6113  2091.6113  2095.1013
  2095.1013  2098.5912  2098.5912  2102.0812  2102.0812  2105.5711
  2001.7453  2005.2353  2005.2353  2008.7252  2008.7252  2012.2152
  2012.2152  2015.7051  2015.7051  2019.1951  2019.1951  2022.6850
  2022.6850  2026.1750  2026.1750  2029.6649  2029.6649  2033.1549
  2033.1549  2036.6448  2036.6448  2040.1348  2040.1348  2043.6247
  2043.6247  2047.1147  2047.1147  2050.6046  2050.6046  2054.0946
  2054.0946  2057.5845  2057.5845  2061.0745  2061.0745  2064.5644
  2064.5644  2068.0544  2068.0544  2071.5443  2071.5443  2075.0343
  2075.0343  2078.5242  2078.5242  2082.0141  2082.0141  2085.5041
  2085.5041  2088.9940  2088.9940  2092.4840  2092.4840  2095.9739
  2095.9739  2099.4639  2099.4639  2102.9538  2102.9538  2106.4438
  2001.7453  2005.2353  2005.2353  2008.7252  2008.7252  2012.2152
  2012.2152  2015.7051  2015.7051  2019.1951  2019.1951  2022.6850
  2022.6850  2026.1750  2026.1750  2029.6649  2029.6649  2033.1549
  2033.1549  2036.6448  2036.6448  2040.1348  2040.1348  2043.6247
  2043.6247  2047.1147  2047.1147  2050.6046  2050.6046  2054.0946
  2054.0946  2057.5845  2057.5845  2061.0745  2061.0745  2064.5644
  2064.5644  2068.0544  2068.0544  2071.5443  2071.5443  2075.0343
  2075.0343  2078.5242  2078.5242  2082.0141  2082.0141  2085.5041
  2085.5041  2088.9940  2088.9940  2092.4840  2092.4840  2095.9739
  2095.9739  2099.4639  2099.4639  2102.9538  2102.9538  2106.4438
  2002.6180  2006.1079  2006.1079  2009.5979  2009.5979  2013.0878
  2013.0878  2016.5778  2016.5778  2020.0677  2020.0677  2023.5577
  2023.5577  2027.0476  2027.0476  2030.5376  2030.5376  2034.0275
  2034.0275  2037.5175  2037.5175  2041.0074  2041.0074  2044.4974
  2044.4974  2047.9873  2047.9873  2051.4773  2051.4773  2054.9672
  2054.9672  2058.4572  2058.4572  2061.9471  2061.9471  2065.4371
  2065.4371  2068.9270  2068.9270  2072.4170  2072.4170  2075.9069
  2075.9069  2079.3969  2079.3969  2082.8868  2082.8868  2086.3768
  2086.3768  2089.8667  2089.8667  2093.3567  2093.3567  2096.8466
  2096.8466  2100.3366  2100.3366  2103.8265  2103.8265  2107.3165
  2002.6180  2006.1079  2006.1079  2009.5979  2009.5979  2013.0878
  2013.0878  2016.5778  2016.5778  2020.0677  2020.0677  2023.5577
  2023.5577  2027.0476  2027.0476  2030.5376  2030.5376  2034.0275
  2034.0275  2037.5175  2037.5175  2041.0074  2041.0074  2044.4974
  2044.4974  2047.9873  2047.9873  2051.4773  2051.4773  2054.9672
  2054.9672  2058.4572  2058.4572  2061.9471  2061.9471  2065.4371
  2065.4371  2068.9270  2068.9270  2072.4170  2072.4170  2075.9069
  2075.9069  2079.3969  2079.3969  2082.8868  2082.8868  2086.3768
  2086.3768  2089.8667  2089.8667  2093.3567  2093.3567  2096.8466
  2096.8466  2100.3366  2100.3366  2103.8265  2103.8265  2107.3165
  2003.4906  2006.9806  2006.9806  2010.4705  2010.4705  2013.9605
  2013.9605  2017.4504  2017.4504  2020.9404  2020.9404  2024.4303
  2024.4303  2027.9203  2027.9203  2031.4102  2031.4102  2034.9002
  2034.9002  2038.3901  2038.3901  2041.8801  2041.8801  2045.3700
  2045.3700  2048.8600  2048.8600  2052.3499  2052.3499  2055.8399
  2055.8399  2059.3298  2059.3298  2062.8198  2062.8198  2066.3097
  2066.3097  2069.7997  2069.7997  2073.2896  2073.2896  2076.7796
  2076.7796  2080.2695  2080.2695  2083.7595  2083.7595  2087.2494
  2087.2494  2090.7394  2090.7394  2094.2293  2094.2293  2097.7193
  2097.7193  2101.2092  2101.2092  2104.6992  2104.6992  2108.1891
  2002.4984  2005.9883  2005.9883  2009.4783  2009.4783  2012.9682
  2012.9682  2016.4582  2016.4582  2019.9481  2019.9481  2023.4381
  2023.4381  2026.9280  2026.9280  2030.4180  2030.4180  2033.9079
  2033.9079  2037.3979  2037.3979  2040.8878  2040.8878  2044.3778
  2044.3778  2047.8677  2047.8677  2051.3577  2051.3577  2054.8476
  2054.8476  2058.3376  2058.3376  2061.8275  2061.8275  2065.3175
  2065.3175  2068.8074  2068.8074  2072.2974  2072.2974  2075.7873
  2075.7873  2079.2773  2079.2773  2082.7672  2082.7672  2086.2572
  2086.2572  2089.7471  2089.7471  2093.2371  2093.2371  2096.7270
  2096.7270  2100.2170  2100.2170  2103.7069  2103.7069  2107.1969
  2003.3710  2006.8610  2006.8610  2010.3509  2010.3509  2013.8409
  2013.8409  2017.3308  2017.3308  2020.8208  2020.8208  2024.3107
  2024.3107  2027.8007  2027.8007  2031.2906  2031.2906  2034.7806
  2034.7806  2038.2705  2038.2705  2041.7605  2041.7605  2045.2504
  2045.2504  2048.7404  2048.7404  2052.2303  2052.2303  2055.7203
  2055.7203  2059.2102  2059.2102  2062.7002  2062.7002  2066.1901
  2066.1901  2069.6801  2069.6801  2073.1700  2073.1700  2076.6600
  2076.6600  2080.1499  2080.1499  2083.6399  2083.6399  2087.1298
  2087.1298  2090.6198  2090.6198  2094.1097  2094.1097  2097.5997
  2097.5997  2101.0896  2101.0896  2104.5796  2104.5796  2108.0695
  2003.3710  2006.8610  2006.8610  2010.3509  2010.3509  2013.8409
  2013.8409  2017.3308  2017.3308  2020.8208  2020.8208  2024.3107
  2024.3107  2027.8007  2027.8007  2031.2906  2031.2906  2034.7806
  2034.7806  2038.2705  2038.2705  2041.7605  2041.7605  2045.2504
  2045.2504  2048.7404  2048.7404  2052.2303  2052.2303  2055.7203
  2055.7203  2059.2102  2059.2102  2062.7002  2062.7002  2066.1901
  2066.1901  2069.6801  2069.6801  2073.1700  2073.1700  2076.6600
  2076.6600  2080.1499  2080.1499  2083.6399  2083.6399  2087.1298
  2087.1298  2090.6198  2090.6198  2094.1097  2094.1097  2097.5997
  2097.5997  2101.0896  2101.0896  2104.5796  2104.5796  2108.0695
  2004.2437  2007.7336  2007.7336  2011.2236  2011.2236  2014.7135
  2014.7135  2018.2035  2018.2035  2021.6934  2021.6934  2025.1834
  2025.1834  2028.6733  2028.6733  2032.1633  2032.1633  2035.6532
  2035.6532  2039.1432  2039.1432  2042.6331  2042.6331  2046.1231
  2046.1231  2049.6130  2049.6130  2053.1030  2053.1030  2056.5929
  2056.5929  2060.0829  2060.0829  2063.5728  2063.5728  2067.0628
  2067.0628  2070.5527  2070.5527  2074.0427  2074.0427  2077.5326
  2077.5326  2081.0226  2081.0226  2084.5125  2084.5125  2088.0025
  2088.0025  2091.4924  2091.4924  2094.9824  2094.9824  2098.4723
  2098.4723  2101.9623  2101.9623  2105.4522  2105.4522  2108.9422
  2004.2437  2007.7336  2007.7336  2011.2236  2011.2236  2014.7135
  2014.7135  2018.2035  2018.2035  2021.6934  2021.6934  2025.1834
  2025.1834  2028.6733  2028.6733  2032.1633  2032.1633  2035.6532
  2035.6532  2039.1432  2039.1432  2042.6331  2042.6331  2046.1231
  2046.1231  2049.6130  2049.6130  2053.1030  2053.1030  2056.5929
  2056.5929  2060.0829  2060.0829  2063.5728  2063.5728  2067.0628
  2067.0628  2070.5527  2070.5527  2074.0427  2074.0427  2077.5326
  2077.5326  2081.0226  2081.0226  2084.5125  2084.5125  2088.0025
  2088.0025  2091.4924  2091.4924  2094.9824  2094.9824  2098.4723
  2098.4723  2101.9623  2101.9623  2105.4522  2105.4522  2108.9422
  2005.1163  2008.6063  2008.6063  2012.0962  2012.0962  2015.5862
  2015.5862  2019.0761  2019.0761  2022.5661  2022.5661  2026.0560
  2026.0560  2029.5460  2029.5460  2033.0359  2033.0359  2036.5259
  2036.5259  2040.0158  2040.0158  2043.5058  2043.5058  2046.9957
  2046.9957  2050.4857  2050.4857  2053.9756  2053.9756  2057.4656
  2057.4656  2060.9555  2060.9555  2064.4455  2064.4455  2067.9354
  2067.9354  2071.4254  2071.4254  2074.9153  2074.9153  2078.4053
  2078.4053  2081.8952  2081.8952  2085.3852  2085.3852  2088.8751
  2088.8751  2092.3651  2092.3651  2095.8550  2095.8550  2099.3450
  2099.3450  2102.8349  2102.8349  2106.3249  2106.3249  2109.8148
  2005.1163  2008.6063  2008.6063  2012.0962  2012.0962  2015.5862
  2015.5862  2019.0761  2019.0761  2022.5661  2022.5661  2026.0560
  2026.0560  2029.5460  2029.5460  2033.0359  2033.0359  2036.5259
  2036.5259  2040.0158  2040.0158  2043.5058  2043.5058  2046.9957
  2046.9957  2050.4857  2050.4857  2053.9756  2053.9756  2057.4656
  2057.4656  2060.9555  2060.9555  2064.4455  2064.4455  2067.9354
  2067.9354  2071.4254  2071.4254  2074.9153  2074.9153  2078.4053
  2078.4053  2081.8952  2081.8952  2085.3852  2085.3852  2088.8751
  2088.8751  2092.3651  2092.3651  2095.8550  2095.8550  2099.3450
  2099.3450  2102.8349  2102.8349  2106.3249  2106.3249  2109.8148
  2005.9890  2009.4789  2009.4789  2012.9689  2012.9689  2016.4588
  2016.4588  2019.9488  2019.9488  2023.4387  2023.4387  2026.9287
  2026.9287  2030.4186  2030.4186  2033.9086  2033.9086  2037.3985
  2037.3985  2040.8885  2040.8885  2044.3784  2044.3784  2047.8684
  2047.8684  2051.3583  2051.3583  2054.8483  2054.8483  2058.3382
  2058.3382  2061.8282  2061.8282  2065.3181  2065.3181  2068.8081
  2068.8081  2072.2980  2072.2980  2075.7880  2075.7880  2079.2779
  2079.2779  2082.7679  2082.7679  2086.2578  2086.2578  2089.7478
  2089.7478  2093.2377  2093.2377  2096.7277  2096.7277  2100.2176
  2100.2176  2103.7076  2103.7076  2107.1975  2107.1975  2110.6875
  2002.4984  2005.9883  2005.9883  2009.4783  2009.4783  2012.9682
  2012.9682  2016.4582  2016.4582  2019.9481  2019.9481  2023.4381
  2023.4381  2026.9280  2026.9280  2030.4180  2030.4180  2033.9079
  2033.9079  2037.3979  2037.3979  2040.8878  2040.8878  2044.3778
  2044.3778  2047.8677  2047.8677  2051.3577  2051.3577  2054.8476
  2054.8476  2058.3376  2058.3376  2061.8275  2061.8275  2065.3175
  2065.3175  2068.8074  2068.8074  2072.2974  2072.2974  2075.7873
  2075.7873  2079.2773  2079.2773  2082.7672  2082.7672  2086.2572
  2086.2572  2089.7471  2089.7471  2093.2371  2093.2371  2096.7270
  2096.7270  2100.2170  2100.2170  2103.7069  2103.7069  2107.1969
  2003.3710  2006.8610  2006.8610  2010.3509  2010.3509  2013.8409
  2013.8409  2017.3308  2017.3308  2020.8208  2020.8208  2024.3107
  2024.3107  2027.8007  2027.8007  2031.2906  2031.2906  2034.7806
  2034.7806  2038.2705  2038.2705  2041.7605  2041.7605  2045.2504
  2045.2504  2048.7404  2048.7404  2052.2303  2052.2303  2055.7203
  2055.7203  2059.2102  2059.2102  2062.7002  2062.7002  2066.1901
  2066.1901  2069.6801  2069.6801  2073.1700  2073.1700  2076.6600
  2076.6600  2080.1499  2080.1499  2083.6399  2083.6399  2087.1298
  2087.1298  2090.6198  2090.6198  2094.1097  2094.1097  2097.5997
  2097.5997  2101.0896  2101.0896  2104.5796  2104.5796  2108.0695
  2003.3710  2006.8610  2006.8610  2010.3509  2010.3509  2013.8409
  2013.8409  2017.3308  2017.3308  2020.8208  2020.8208  2024.3107
  2024.3107  2027.8007  2027.8007  2031.2906  2031.2906  2034.7806
  2034.7806  2038.2705  2038.2705  2041.7605  2041.7605  2045.2504
  2045.2504  2048.7404  2048.7404  2052.2303  2052.2303  2055.7203
  2055.7203  2059.2102  2059.2102  2062.7002  2062.7002  2066.1901
  2066.1901  2069.6801  2069.6801  2073.1700  2073.1700  2076.6600
  2076.6600  2080.1499  2080.1499  2083.6399  2083.6399  2087.1298
  2087.1298  2090.6198  2090.6198  2094.1097  2094.1097  2097.5997
  2097.5997  2101.0896  2101.0896  2104.5796  2104.5796  2108.0695
  2004.2437  2007.7336  2007.7336  2011.2236  2011.2236  2014.7135
  2014.7135  2018.2035  2018.2035  2021.6934  2021.6934  2025.1834
  2025.1834  2028.6733  2028.6733  2032.1633  2032.1633  2035.6532
  2035.6532  2039.1432  2039.1432  2042.6331  2042.6331  2046.1231
  2046.1231  2049.6130  2049.6130  2053.1030  2053.1030  2056.5929
  2056.5929  2060.0829  2060.0829  2063.5728  2063.5728  2067.0628
  2067.0628  2070.5527  2070.5527  2074.0427  2074.0427  2077.5326
  2077.5326  2081.0226  2081.0226  2084.5125  2084.5125  2088.0025
  2088.0025  2091.4924  2091.4924  2094.9824  2094.9824  2098.4723
  2098.4723  2101.9623  2101.9623  2105.4522  2105.4522  2108.9422
  2004.2437  2007.7336  2007.7336  2011.2236  2011.2236  2014.7135
  2014.7135  2018.2035  2018.2035  2021.6934  2021.6934  2025.1834
  2025.1834  2028.6733  2028.6733  2032.1633  2032.1633  2035.6532
  2035.6532  2039.1432  2039.1432  2042.6331  2042.6331  2046.1231
  2046.1231  2049.6130  2049.6130  2053.1030  2053.1030  2056.5929
  2056.5929  2060.0829  2060.0829  2063.5728  2063.5728  2067.0628
  2067.0628  2070.5527  2070.5527  2074.0427  2074.0427  2077.5326
  2077.5326  2081.0226  2081.0226  2084.5125  2084.5125  2088.0025
  2088.0025  2091.4924  2091.4924  2094.9824  2094.9824  2098.4723
  2098.4723  2101.9623  2101.9623  2105.4522  2105.4522  2108.9422
  2005.1163  2008.6063  2008.6063  2012.0962  2012.0962  2015.5862
  2015.5862  2019.0761  2019.0761  2022.5661  2022.5661  2026.0560
  2026.0560  2029.5460  2029.5460  2033.0359  2033.0359  2036.5259
  2036.5259  2040.0158  2040.0158  2043.5058  2043.5058  2046.9957
  2046.9957  2050.4857  2050.4857  2053.9756  2053.9756  2057.4656
  2057.4656  2060.9555  2060.9555  2064.4455  2064.4455  2067.9354
  2067.9354  2071.4254  2071.4254  2074.9153  2074.9153  2078.4053
  2078.4053  2081.8952  2081.8952  2085.3852  2085.3852  2088.8751
  2088.8751  2092.3651  2092.3651  2095.8550  2095.8550  2099.3450
  2099.3450  2102.8349  2102.8349  2106.3249  2106.3249  2109.8148
  2005.1163  2008.6063  2008.6063  2012.0962  2012.0962  2015.5862
  2015.5862  2019.0761  2019.0761  2022.5661  2022.5661  2026.0560
  2026.0560  2029.5460  2029.5460  2033.0359  2033.0359  2036.5259
  2036.5259  2040.0158  2040.0158  2043.5058  2043.5058  2046.9957
  2046.9957  2050.4857  2050.4857  2053.9756  2053.9756  2057.4656
  2057.4656  2060.9555  2060.9555  2064.4455  2064.4455  2067.9354
  2067.9354  2071.4254  2071.4254  2074.9153  2074.9153  2078.4053
  2078.4053  2081.8952  2081.8952  2085.3852  2085.3852  2088.8751
  2088.8751  2092.3651  2092.3651  2095.8550  2095.8550  2099.3450
  2099.3450  2102.8349  2102.8349  2106.3249  2106.3249  2109.8148
  2005.9890  2009.4789  2009.4789  2012.9689  2012.9689  2016.4588
  2016.4588  2019.9488  2019.9488  2023.4387  2023.4387  2026.9287
  2026.9287  2030.4186  2030.4186  2033.9086  2033.9086  2037.3985
  2037.3985  2040.8885  2040.8885  2044.3784  2044.3784  2047.8684
  2047.8684  2051.3583  2051.3583  2054.8483  2054.8483  2058.3382
  2058.3382  2061.8282  2061.8282  2065.3181  2065.3181  2068.8081
  2068.8081  2072.2980  2072.2980  2075.7880  2075.7880  2079.2779
  2079.2779  2082.7679  2082.7679  2086.2578  2086.2578  2089.7478
  2089.7478  2093.2377  2093.2377  2096.7277  2096.7277  2100.2176
  2100.2176  2103.7076  2103.7076  2107.1975  2107.1975  2110.6875
  2005.4964  2008.9864  2008.9864  2012.4763  2012.4763  2015.9663
  2015.9663  2019.4562  2019.4562  2022.9462  2022.9462  2026.4361
  2026.4361  2029.9261  2029.9261  2033.4160  2033.4160  2036.9060
  2036.9060  2040.3959  2040.3959  2043.8859  2043.8859  2047.3758
  2047.3758  2050.8658  2050.8658  2054.3557  2054.3557  2057.8457
  2057.8457  2061.3356  2061.3356  2064.8256  2064.8256  2068.3155
  2068.3155  2071.8055  2071.8055  2075.2954  2075.2954  2078.7854
  2078.7854  2082.2753  2082.2753  2085.7653  2085.7653  2089.2552
  2089.2552  2092.7452  2092.7452  2096.2351  2096.2351  2099.7251
  2099.7251  2103.2150  2103.2150  2106.7050  2106.7050  2110.1949
  2006.3691  2009.8590  2009.8590  2013.3490  2013.3490  2016.8389
  2016.8389  2020.3289  2020.3289  2023.8188  2023.8188  2027.3088
  2027.3088  2030.7987  2030.7987  2034.2887  2034.2887  2037.7786
  2037.7786  2041.2686  2041.2686  2044.7585  2044.7585  2048.2485
  2048.2485  2051.7384  2051.7384  2055.2284  2055.2284  2058.7183
  2058.7183  2062.2083  2062.2083  2065.6982  2065.6982  2069.1882
  2069.1882  2072.6781  2072.6781  2076.1681  2076.1681  2079.6580
  2079.6580  2083.1480  2083.1480  2086.6379  2086.6379  2090.1279
  2090.1279  2093.6178  2093.6178  2097.1078  2097.1078  2100.5977
  2100.5977  2104.0877  2104.0877  2107.5776  2107.5776  2111.0676
  2006.3691  2009.8590  2009.8590  2013.3490  2013.3490  2016.8389
  2016.8389  2020.3289  2020.3289  2023.8188  2023.8188  2027.3088
  2027.3088  2030.7987  2030.7987  2034.2887  2034.2887  2037.7786
  2037.7786  2041.2686  2041.2686  2044.7585  2044.7585  2048.2485
  2048.2485  2051.7384  2051.7384  2055.2284  2055.2284  2058.7183
  2058.7183  2062.2083  2062.2083  2065.6982  2065.6982  2069.1882
  2069.1882  2072.6781  2072.6781  2076.1681  2076.1681  2079.6580
  2079.6580  2083.1480  2083.1480  2086.6379  2086.6379  2090.1279
  2090.1279  2093.6178  2093.6178  2097.1078  2097.1078  2100.5977
  2100.5977  2104.0877  2104.0877  2107.5776  2107.5776  2111.0676
  2007.2417  2010.7317  2010.7317  2014.2216  2014.2216  2017.7116
  2017.7116  2021.2015  2021.2015  2024.6915  2024.6915  2028.1814
  2028.1814  2031.6714  2031.6714  2035.1613  2035.1613  2038.6513
  2038.6513  2042.1412  2042.1412  2045.6312  2045.6312  2049.1211
  2049.1211  2052.6111  2052.6111  2056.1010  2056.1010  2059.5910
  2059.5910  2063.0809  2063.0809  2066.5709  2066.5709  2070.0608
  2070.0608  2073.5508  2073.5508  2077.0407  2077.0407  2080.5307
  2080.5307  2084.0206  2084.0206  2087.5106  2087.5106  2091.0005
  2091.0005  2094.4905  2094.4905  2097.9804  2097.9804  2101.4704
  2101.4704  2104.9603  2104.9603  2108.4503  2108.4503  2111.9402
  2007.2417  2010.7317  2010.7317  2014.2216  2014.2216  2017.7116
  2017.7116  2021.2015  2021.2015  2024.6915  2024.6915  2028.1814