-- This reservoir simulation deck is made available under the Open Database
-- License: http://opendatacommons.org/licenses/odbl/1.0/. Any rights in
-- individual contents of the database are licensed under the Database Contents
-- License: http://opendatacommons.org/licenses/dbcl/1.0/

-- Copyright (C) 2022 Equinor

-- This test case is used for testing inter-region flow parameters
--   ROFT, RWFT and RGFT

-- This model runs both for Eclipse 100, Eclipse 300 Black oil and Opm-Flow


SPECGRID
 10 12 8 1 F / 

COORD
  2000.0000  2000.0000  2006.5000   1999.9215  2000.0000  2029.3965 
  2099.9848  2000.0000  2008.2452   2099.9062  2000.0000  2031.1418 
  2199.9695  2000.0000  2009.9905   2199.8910  2000.0000  2032.8870 
  2299.9543  2000.0000  2011.7357   2299.8758  2000.0000  2034.6322 
  2399.9391  2000.0000  2013.4810   2399.8605  2000.0000  2036.3775 
  2499.9238  2000.0000  2015.2262   2499.8453  2000.0000  2038.1227 
  2599.9086  2000.0000  2016.9714   2599.8301  2000.0000  2039.8680 
  2699.8934  2000.0000  2018.7167   2699.8149  2000.0000  2041.6132 
  2799.8782  2000.0000  2020.4619   2799.7996  2000.0000  2043.3584 
  2899.8629  2000.0000  2022.2072   2899.7844  2000.0000  2045.1037 
  2999.8477  2000.0000  2023.9524   2999.7692  2000.0000  2046.8489 
  2000.0000  2100.0000  2006.5000   1999.9215  2100.0000  2029.3965 
  2099.9848  2100.0000  2008.2452   2099.9062  2100.0000  2031.1418 
  2199.9695  2100.0000  2009.9905   2199.8910  2100.0000  2032.8870 
  2299.9543  2100.0000  2011.7357   2299.8758  2100.0000  2034.6322 
  2399.9391  2100.0000  2013.4810   2399.8605  2100.0000  2036.3775 
  2499.9238  2100.0000  2015.2262   2499.8453  2100.0000  2038.1227 
  2599.9086  2100.0000  2016.9714   2599.8301  2100.0000  2039.8680 
  2699.8934  2100.0000  2018.7167   2699.8149  2100.0000  2041.6132 
  2799.8782  2100.0000  2020.4619   2799.7996  2100.0000  2043.3584 
  2899.8629  2100.0000  2022.2072   2899.7844  2100.0000  2045.1037 
  2999.8477  2100.0000  2023.9524   2999.7692  2100.0000  2046.8489 
  2000.0000  2200.0000  2006.5000   1999.9215  2200.0000  2029.3965 
  2099.9848  2200.0000  2008.2452   2099.9062  2200.0000  2031.1418 
  2199.9695  2200.0000  2009.9905   2199.8910  2200.0000  2032.8870 
  2299.9543  2200.0000  2011.7357   2299.8758  2200.0000  2034.6322 
  2399.9391  2200.0000  2013.4810   2399.8605  2200.0000  2036.3775 
  2499.9238  2200.0000  2015.2262   2499.8453  2200.0000  2038.1227 
  2599.9086  2200.0000  2016.9714   2599.8301  2200.0000  2039.8680 
  2699.8934  2200.0000  2018.7167   2699.8149  2200.0000  2041.6132 
  2799.8782  2200.0000  2020.4619   2799.7996  2200.0000  2043.3584 
  2899.8629  2200.0000  2022.2072   2899.7844  2200.0000  2045.1037 
  2999.8477  2200.0000  2023.9524   2999.7692  2200.0000  2046.8489 
  2000.0000  2300.0000  2006.5000   1999.9215  2300.0000  2029.3965 
  2099.9848  2300.0000  2008.2452   2099.9062  2300.0000  2031.1418 
  2199.9695  2300.0000  2009.9905   2199.8910  2300.0000  2032.8870 
  2299.9543  2300.0000  2011.7357   2299.8758  2300.0000  2034.6322 
  2399.9391  2300.0000  2013.4810   2399.8605  2300.0000  2036.3775 
  2499.9238  2300.0000  2015.2262   2499.8453  2300.0000  2038.1227 
  2599.9086  2300.0000  2016.9714   2599.8301  2300.0000  2039.8680 
  2699.8934  2300.0000  2018.7167   2699.8149  2300.0000  2041.6132 
  2799.8782  2300.0000  2020.4619   2799.7996  2300.0000  2043.3584 
  2899.8629  2300.0000  2022.2072   2899.7844  2300.0000  2045.1037 
  2999.8477  2300.0000  2023.9524   2999.7692  2300.0000  2046.8489 
  2000.0000  2400.0000  2006.5000   1999.9215  2400.0000  2029.3965 
  2099.9848  2400.0000  2008.2452   2099.9062  2400.0000  2031.1418 
  2199.9695  2400.0000  2009.9905   2199.8910  2400.0000  2032.8870 
  2299.9543  2400.0000  2011.7357   2299.8758  2400.0000  2034.6322 
  2399.9391  2400.0000  2013.4810   2399.8605  2400.0000  2036.3775 
  2499.9238  2400.0000  2015.2262   2499.8453  2400.0000  2038.1227 
  2599.9086  2400.0000  2016.9714   2599.8301  2400.0000  2039.8680 
  2699.8934  2400.0000  2018.7167   2699.8149  2400.0000  2041.6132 
  2799.8782  2400.0000  2020.4619   2799.7996  2400.0000  2043.3584 
  2899.8629  2400.0000  2022.2072   2899.7844  2400.0000  2045.1037 
  2999.8477  2400.0000  2023.9524   2999.7692  2400.0000  2046.8489 
  2000.0000  2500.0000  2006.5000   1999.9215  2500.0000  2029.3965 
  2099.9848  2500.0000  2008.2452   2099.9062  2500.0000  2031.1418 
  2199.9695  2500.0000  2009.9905   2199.8910  2500.0000  2032.8870 
  2299.9543  2500.0000  2011.7357   2299.8758  2500.0000  2034.6322 
  2399.9391  2500.0000  2013.4810   2399.8605  2500.0000  2036.3775 
  2499.9238  2500.0000  2015.2262   2499.8453  2500.0000  2038.1227 
  2599.9086  2500.0000  2016.9714   2599.8301  2500.0000  2039.8680 
  2699.8934  2500.0000  2018.7167   2699.8149  2500.0000  2041.6132 
  2799.8782  2500.0000  2020.4619   2799.7996  2500.0000  2043.3584 
  2899.8629  2500.0000  2022.2072   2899.7844  2500.0000  2045.1037 
  2999.8477  2500.0000  2023.9524   2999.7692  2500.0000  2046.8489 
  2000.0000  2600.0000  2000.0000   1999.9215  2600.0000  2022.8965 
  2099.9848  2600.0000  2001.7452   2099.9062  2600.0000  2024.6418 
  2199.9695  2600.0000  2003.4905   2199.8910  2600.0000  2026.3870 
  2299.9543  2600.0000  2005.2357   2299.8758  2600.0000  2028.1322 
  2399.9391  2600.0000  2006.9810   2399.8605  2600.0000  2029.8775 
  2499.9238  2600.0000  2008.7262   2499.8453  2600.0000  2031.6227 
  2599.9086  2600.0000  2010.4714   2599.8301  2600.0000  2033.3680 
  2699.8934  2600.0000  2012.2167   2699.8149  2600.0000  2035.1132 
  2799.8782  2600.0000  2013.9619   2799.7996  2600.0000  2036.8584 
  2899.8629  2600.0000  2015.7072   2899.7844  2600.0000  2038.6037 
  2999.8477  2600.0000  2017.4524   2999.7692  2600.0000  2040.3489 
  2000.0000  2700.0000  2000.0000   1999.9215  2700.0000  2022.8965 
  2099.9848  2700.0000  2001.7452   2099.9062  2700.0000  2024.6418 
  2199.9695  2700.0000  2003.4905   2199.8910  2700.0000  2026.3870 
  2299.9543  2700.0000  2005.2357   2299.8758  2700.0000  2028.1322 
  2399.9391  2700.0000  2006.9810   2399.8605  2700.0000  2029.8775 
  2499.9238  2700.0000  2008.7262   2499.8453  2700.0000  2031.6227 
  2599.9086  2700.0000  2010.4714   2599.8301  2700.0000  2033.3680 
  2699.8934  2700.0000  2012.2167   2699.8149  2700.0000  2035.1132 
  2799.8782  2700.0000  2013.9619   2799.7996  2700.0000  2036.8584 
  2899.8629  2700.0000  2015.7072   2899.7844  2700.0000  2038.6037 
  2999.8477  2700.0000  2017.4524   2999.7692  2700.0000  2040.3489 
  2000.0000  2800.0000  2000.0000   1999.9215  2800.0000  2022.8965 
  2099.9848  2800.0000  2001.7452   2099.9062  2800.0000  2024.6418 
  2199.9695  2800.0000  2003.4905   2199.8910  2800.0000  2026.3870 
  2299.9543  2800.0000  2005.2357   2299.8758  2800.0000  2028.1322 
  2399.9391  2800.0000  2006.9810   2399.8605  2800.0000  2029.8775 
  2499.9238  2800.0000  2008.7262   2499.8453  2800.0000  2031.6227 
  2599.9086  2800.0000  2010.4714   2599.8301  2800.0000  2033.3680 
  2699.8934  2800.0000  2012.2167   2699.8149  2800.0000  2035.1132 
  2799.8782  2800.0000  2013.9619   2799.7996  2800.0000  2036.8584 
  2899.8629  2800.0000  2015.7072   2899.7844  2800.0000  2038.6037 
  2999.8477  2800.0000  2017.4524   2999.7692  2800.0000  2040.3489 
  2000.0000  2900.0000  2000.0000   1999.9215  2900.0000  2022.8965 
  2099.9848  2900.0000  2001.7452   2099.9062  2900.0000  2024.6418 
  2199.9695  2900.0000  2003.4905   2199.8910  2900.0000  2026.3870 
  2299.9543  2900.0000  2005.2357   2299.8758  2900.0000  2028.1322 
  2399.9391  2900.0000  2006.9810   2399.8605  2900.0000  2029.8775 
  2499.9238  2900.0000  2008.7262   2499.8453  2900.0000  2031.6227 
  2599.9086  2900.0000  2010.4714   2599.8301  2900.0000  2033.3680 
  2699.8934  2900.0000  2012.2167   2699.8149  2900.0000  2035.1132 
  2799.8782  2900.0000  2013.9619   2799.7996  2900.0000  2036.8584 
  2899.8629  2900.0000  2015.7072   2899.7844  2900.0000  2038.6037 
  2999.8477  2900.0000  2017.4524   2999.7692  2900.0000  2040.3489 
  2000.0000  3000.0000  2000.0000   1999.9215  3000.0000  2022.8965 
  2099.9848  3000.0000  2001.7452   2099.9062  3000.0000  2024.6418 
  2199.9695  3000.0000  2003.4905   2199.8910  3000.0000  2026.3870 
  2299.9543  3000.0000  2005.2357   2299.8758  3000.0000  2028.1322 
  2399.9391  3000.0000  2006.9810   2399.8605  3000.0000  2029.8775 
  2499.9238  3000.0000  2008.7262   2499.8453  3000.0000  2031.6227 
  2599.9086  3000.0000  2010.4714   2599.8301  3000.0000  2033.3680 
  2699.8934  3000.0000  2012.2167   2699.8149  3000.0000  2035.1132 
  2799.8782  3000.0000  2013.9619   2799.7996  3000.0000  2036.8584 
  2899.8629  3000.0000  2015.7072   2899.7844  3000.0000  2038.6037 
  2999.8477  3000.0000  2017.4524   2999.7692  3000.0000  2040.3489 
  2000.0000  3100.0000  2000.0000   1999.9215  3100.0000  2022.8965 
  2099.9848  3100.0000  2001.7452   2099.9062  3100.0000  2024.6418 
  2199.9695  3100.0000  2003.4905   2199.8910  3100.0000  2026.3870 
  2299.9543  3100.0000  2005.2357   2299.8758  3100.0000  2028.1322 
  2399.9391  3100.0000  2006.9810   2399.8605  3100.0000  2029.8775 
  2499.9238  3100.0000  2008.7262   2499.8453  3100.0000  2031.6227 
  2599.9086  3100.0000  2010.4714   2599.8301  3100.0000  2033.3680 
  2699.8934  3100.0000  2012.2167   2699.8149  3100.0000  2035.1132 
  2799.8782  3100.0000  2013.9619   2799.7996  3100.0000  2036.8584 
  2899.8629  3100.0000  2015.7072   2899.7844  3100.0000  2038.6037 
  2999.8477  3100.0000  2017.4524   2999.7692  3100.0000  2040.3489 
  2000.0000  3200.0000  2000.0000   1999.9215  3200.0000  2022.8965 
  2099.9848  3200.0000  2001.7452   2099.9062  3200.0000  2024.6418 
  2199.9695  3200.0000  2003.4905   2199.8910  3200.0000  2026.3870 
  2299.9543  3200.0000  2005.2357   2299.8758  3200.0000  2028.1322 
  2399.9391  3200.0000  2006.9810   2399.8605  3200.0000  2029.8775 
  2499.9238  3200.0000  2008.7262   2499.8453  3200.0000  2031.6227 
  2599.9086  3200.0000  2010.4714   2599.8301  3200.0000  2033.3680 
  2699.8934  3200.0000  2012.2167   2699.8149  3200.0000  2035.1132 
  2799.8782  3200.0000  2013.9619   2799.7996  3200.0000  2036.8584 
  2899.8629  3200.0000  2015.7072   2899.7844  3200.0000  2038.6037 
  2999.8477  3200.0000  2017.4524   2999.7692  3200.0000  2040.3489 
/ 

ZCORN
  2006.5000  2008.2452  2008.2452  2009.9905  2009.9905  2011.7357
  2011.7357  2013.4810  2013.4810  2015.2262  2015.2262  2016.9714
  2016.9714  2018.7167  2018.7167  2020.4619  2020.4619  2022.2072
  2022.2072  2023.9524  2006.5000  2008.2452  2008.2452  2009.9905
  2009.9905  2011.7357  2011.7357  2013.4810  2013.4810  2015.2262
  2015.2262  2016.9714  2016.9714  2018.7167  2018.7167  2020.4619
  2020.4619  2022.2072  2022.2072  2023.9524  2006.5000  2008.2452
  2008.2452  2009.9905  2009.9905  2011.7357  2011.7357  2013.4810
  2013.4810  2015.2262  2015.2262  2016.9714  2016.9714  2018.7167
  2018.7167  2020.4619  2020.4619  2022.2072  2022.2072  2023.9524
  2006.5000  2008.2452  2008.2452  2009.9905  2009.9905  2011.7357
  2011.7357  2013.4810  2013.4810  2015.2262  2015.2262  2016.9714
  2016.9714  2018.7167  2018.7167  2020.4619  2020.4619  2022.2072
  2022.2072  2023.9524  2006.5000  2008.2452  2008.2452  2009.9905
  2009.9905  2011.7357  2011.7357  2013.4810  2013.4810  2015.2262
  2015.2262  2016.9714  2016.9714  2018.7167  2018.7167  2020.4619
  2020.4619  2022.2072  2022.2072  2023.9524  2006.5000  2008.2452
  2008.2452  2009.9905  2009.9905  2011.7357  2011.7357  2013.4810
  2013.4810  2015.2262  2015.2262  2016.9714  2016.9714  2018.7167
  2018.7167  2020.4619  2020.4619  2022.2072  2022.2072  2023.9524
  2006.5000  2008.2452  2008.2452  2009.9905  2009.9905  2011.7357
  2011.7357  2013.4810  2013.4810  2015.2262  2015.2262  2016.9714
  2016.9714  2018.7167  2018.7167  2020.4619  2020.4619  2022.2072
  2022.2072  2023.9524  2006.5000  2008.2452  2008.2452  2009.9905
  2009.9905  2011.7357  2011.7357  2013.4810  2013.4810  2015.2262
  2015.2262  2016.9714  2016.9714  2018.7167  2018.7167  2020.4619
  2020.4619  2022.2072  2022.2072  2023.9524  2006.5000  2008.2452
  2008.2452  2009.9905  2009.9905  2011.7357  2011.7357  2013.4810
  2013.4810  2015.2262  2015.2262  2016.9714  2016.9714  2018.7167
  2018.7167  2020.4619  2020.4619  2022.2072  2022.2072  2023.9524
  2006.5000  2008.2452  2008.2452  2009.9905  2009.9905  2011.7357
  2011.7357  2013.4810  2013.4810  2015.2262  2015.2262  2016.9714
  2016.9714  2018.7167  2018.7167  2020.4619  2020.4619  2022.2072
  2022.2072  2023.9524  2006.5000  2008.2452  2008.2452  2009.9905
  2009.9905  2011.7357  2011.7357  2013.4810  2013.4810  2015.2262
  2015.2262  2016.9714  2016.9714  2018.7167  2018.7167  2020.4619
  2020.4619  2022.2072  2022.2072  2023.9524  2006.5000  2008.2452
  2008.2452  2009.9905  2009.9905  2011.7357  2011.7357  2013.4810
  2013.4810  2015.2262  2015.2262  2016.9714  2016.9714  2018.7167
  2018.7167  2020.4619  2020.4619  2022.2072  2022.2072  2023.9524
  2000.0000  2001.7452  2001.7452  2003.4905  2003.4905  2005.2357
  2005.2357  2006.9810  2006.9810  2008.7262  2008.7262  2010.4714
  2010.4714  2012.2167  2012.2167  2013.9619  2013.9619  2015.7072
  2015.7072  2017.4524  2000.0000  2001.7452  2001.7452  2003.4905
  2003.4905  2005.2357  2005.2357  2006.9810  2006.9810  2008.7262
  2008.7262  2010.4714  2010.4714  2012.2167  2012.2167  2013.9619
  2013.9619  2015.7072  2015.7072  2017.4524  2000.0000  2001.7452
  2001.7452  2003.4905  2003.4905  2005.2357  2005.2357  2006.9810
  2006.9810  2008.7262  2008.7262  2010.4714  2010.4714  2012.2167
  2012.2167  2013.9619  2013.9619  2015.7072  2015.7072  2017.4524
  2000.0000  2001.7452  2001.7452  2003.4905  2003.4905  2005.2357
  2005.2357  2006.9810  2006.9810  2008.7262  2008.7262  2010.4714
  2010.4714  2012.2167  2012.2167  2013.9619  2013.9619  2015.7072
  2015.7072  2017.4524  2000.0000  2001.7452  2001.7452  2003.4905
  2003.4905  2005.2357  2005.2357  2006.9810  2006.9810  2008.7262
  2008.7262  2010.4714  2010.4714  2012.2167  2012.2167  2013.9619
  2013.9619  2015.7072  2015.7072  2017.4524  2000.0000  2001.7452
  2001.7452  2003.4905  2003.4905  2005.2357  2005.2357  2006.9810
  2006.9810  2008.7262  2008.7262  2010.4714  2010.4714  2012.2167
  2012.2167  2013.9619  2013.9619  2015.7072  2015.7072  2017.4524
  2000.0000  2001.7452  2001.7452  2003.4905  2003.4905  2005.2357
  2005.2357  2006.9810  2006.9810  2008.7262  2008.7262  2010.4714
  2010.4714  2012.2167  2012.2167  2013.9619  2013.9619  2015.7072
  2015.7072  2017.4524  2000.0000  2001.7452  2001.7452  2003.4905
  2003.4905  2005.2357  2005.2357  2006.9810  2006.9810  2008.7262
  2008.7262  2010.4714  2010.4714  2012.2167  2012.2167  2013.9619
  2013.9619  2015.7072  2015.7072  2017.4524  2000.0000  2001.7452
  2001.7452  2003.4905  2003.4905  2005.2357  2005.2357  2006.9810
  2006.9810  2008.7262  2008.7262  2010.4714  2010.4714  2012.2167
  2012.2167  2013.9619  2013.9619  2015.7072  2015.7072  2017.4524
  2000.0000  2001.7452  2001.7452  2003.4905  2003.4905  2005.2357
  2005.2357  2006.9810  2006.9810  2008.7262  2008.7262  2010.4714
  2010.4714  2012.2167  2012.2167  2013.9619  2013.9619  2015.7072
  2015.7072  2017.4524  2000.0000  2001.7452  2001.7452  2003.4905
  2003.4905  2005.2357  2005.2357  2006.9810  2006.9810  2008.7262
  2008.7262  2010.4714  2010.4714  2012.2167  2012.2167  2013.9619
  2013.9619  2015.7072  2015.7072  2017.4524  2000.0000  2001.7452
  2001.7452  2003.4905  2003.4905  2005.2357  2005.2357  2006.9810
  2006.9810  2008.7262  2008.7262  2010.4714  2010.4714  2012.2167
  2012.2167  2013.9619  2013.9619  2015.7072  2015.7072  2017.4524
  2008.9996  2010.7449  2010.7449  2012.4901  2012.4901  2014.2353
  2014.2353  2015.9806  2015.9806  2017.7258  2017.7258  2019.4711
  2019.4711  2021.2163  2021.2163  2022.9615  2022.9615  2024.7068
  2024.7068  2026.4520  2008.9996  2010.7449  2010.7449  2012.4901
  2012.4901  2014.2353  2014.2353  2015.9806  2015.9806  2017.7258
  2017.7258  2019.4711  2019.4711  2021.2163  2021.2163  2022.9615
  2022.9615  2024.7068  2024.7068  2026.4520  2008.9996  2010.7449
  2010.7449  2012.4901  2012.4901  2014.2353  2014.2353  2015.9806
  2015.9806  2017.7258  2017.7258  2019.4711  2019.4711  2021.2163
  2021.2163  2022.9615  2022.9615  2024.7068  2024.7068  2026.4520
  2008.9996  2010.7449  2010.7449  2012.4901  2012.4901  2014.2353
  2014.2353  2015.9806  2015.9806  2017.7258  2017.7258  2019.4711
  2019.4711  2021.2163  2021.2163  2022.9615  2022.9615  2024.7068
  2024.7068  2026.4520  2008.9996  2010.7449  2010.7449  2012.4901
  2012.4901  2014.2353  2014.2353  2015.9806  2015.9806  2017.7258
  2017.7258  2019.4711  2019.4711  2021.2163  2021.2163  2022.9615
  2022.9615  2024.7068  2024.7068  2026.4520  2008.9996  2010.7449
  2010.7449  2012.4901  2012.4901  2014.2353  2014.2353  2015.9806
  2015.9806  2017.7258  2017.7258  2019.4711  2019.4711  2021.2163
  2021.2163  2022.9615  2022.9615  2024.7068  2024.7068  2026.4520
  2008.9996  2010.7449  2010.7449  2012.4901  2012.4901  2014.2353
  2014.2353  2015.9806  2015.9806  2017.7258  2017.7258  2019.4711
  2019.4711  2021.2163  2021.2163  2022.9615  2022.9615  2024.7068
  2024.7068  2026.4520  2008.9996  2010.7449  2010.7449  2012.4901
  2012.4901  2014.2353  2014.2353  2015.9806  2015.9806  2017.7258
  2017.7258  2019.4711  2019.4711  2021.2163  2021.2163  2022.9615
  2022.9615  2024.7068  2024.7068  2026.4520  2008.9996  2010.7449
  2010.7449  2012.4901  2012.4901  2014.2353  2014.2353  2015.9806
  2015.9806  2017.7258  2017.7258  2019.4711  2019.4711  2021.2163
  2021.2163  2022.9615  2022.9615  2024.7068  2024.7068  2026.4520
  2008.9996  2010.7449  2010.7449  2012.4901  2012.4901  2014.2353
  2014.2353  2015.9806  2015.9806  2017.7258  2017.7258  2019.4711
  2019.4711  2021.2163  2021.2163  2022.9615  2022.9615  2024.7068
  2024.7068  2026.4520  2008.9996  2010.7449  2010.7449  2012.4901
  2012.4901  2014.2353  2014.2353  2015.9806  2015.9806  2017.7258
  2017.7258  2019.4711  2019.4711  2021.2163  2021.2163  2022.9615
  2022.9615  2024.7068  2024.7068  2026.4520  2008.9996  2010.7449
  2010.7449  2012.4901  2012.4901  2014.2353  2014.2353  2015.9806
  2015.9806  2017.7258  2017.7258  2019.4711  2019.4711  2021.2163
  2021.2163  2022.9615  2022.9615  2024.7068  2024.7068  2026.4520
  2002.4996  2004.2449  2004.2449  2005.9901  2005.9901  2007.7353
  2007.7353  2009.4806  2009.4806  2011.2258  2011.2258  2012.9711
  2012.9711  2014.7163  2014.7163  2016.4615  2016.4615  2018.2068
  2018.2068  2019.9520  2002.4996  2004.2449  2004.2449  2005.9901
  2005.9901  2007.7353  2007.7353  2009.4806  2009.4806  2011.2258
  2011.2258  2012.9711  2012.9711  2014.7163  2014.7163  2016.4615
  2016.4615  2018.2068  2018.2068  2019.9520  2002.4996  2004.2449
  2004.2449  2005.9901  2005.9901  2007.7353  2007.7353  2009.4806
  2009.4806  2011.2258  2011.2258  2012.9711  2012.9711  2014.7163
  2014.7163  2016.4615  2016.4615  2018.2068  2018.2068  2019.9520
  2002.4996  2004.2449  2004.2449  2005.9901  2005.9901  2007.7353
  2007.7353  2009.4806  2009.4806  2011.2258  2011.2258  2012.9711
  2012.9711  2014.7163  2014.7163  2016.4615  2016.4615  2018.2068
  2018.2068  2019.9520  2002.4996  2004.2449  2004.2449  2005.9901
  2005.9901  2007.7353  2007.7353  2009.4806  2009.4806  2011.2258
  2011.2258  2012.9711  2012.9711  2014.7163  2014.7163  2016.4615
  2016.4615  2018.2068  2018.2068  2019.9520  2002.4996  2004.2449
  2004.2449  2005.9901  2005.9901  2007.7353  2007.7353  2009.4806
  2009.4806  2011.2258  2011.2258  2012.9711  2012.9711  2014.7163
  2014.7163  2016.4615  2016.4615  2018.2068  2018.2068  2019.9520
  2002.4996  2004.2449  2004.2449  2005.9901  2005.9901  2007.7353
  2007.7353  2009.4806  2009.4806  2011.2258  2011.2258  2012.9711
  2012.9711  2014.7163  2014.7163  2016.4615  2016.4615  2018.2068
  2018.2068  2019.9520  2002.4996  2004.2449  2004.2449  2005.9901
  2005.9901  2007.7353  2007.7353  2009.4806  2009.4806  2011.2258
  2011.2258  2012.9711  2012.9711  2014.7163  2014.7163  2016.4615
  2016.4615  2018.2068  2018.2068  2019.9520  2002.4996  2004.2449
  2004.2449  2005.9901  2005.9901  2007.7353  2007.7353  2009.4806
  2009.4806  2011.2258  2011.2258  2012.9711  2012.9711  2014.7163
  2014.7163  2016.4615  2016.4615  2018.2068  2018.2068  2019.9520
  2002.4996  2004.2449  2004.2449  2005.9901  2005.9901  2007.7353
  2007.7353  2009.4806  2009.4806  2011.2258  2011.2258  2012.9711
  2012.9711  2014.7163  2014.7163  2016.4615  2016.4615  2018.2068
  2018.2068  2019.9520  2002.4996  2004.2449  2004.2449  2005.9901
  2005.9901  2007.7353  2007.7353  2009.4806  2009.4806  2011.2258
  2011.2258  2012.9711  2012.9711  2014.7163  2014.7163  2016.4615
  2016.4615  2018.2068  2018.2068  2019.9520  2002.4996  2004.2449
  2004.2449  2005.9901  2005.9901  2007.7353  2007.7353  2009.4806
  2009.4806  2011.2258  2011.2258  2012.9711  2012.9711  2014.7163
  2014.7163  2016.4615  2016.4615  2018.2068  2018.2068  2019.9520
  2008.9996  2010.7449  2010.7449  2012.4901  2012.4901  2014.2353
  2014.2353  2015.9806  2015.9806  2017.7258  2017.7258  2019.4711
  2019.4711  2021.2163  2021.2163  2022.9615  2022.9615  2024.7068
  2024.7068  2026.4520  2008.9996  2010.7449  2010.7449  2012.4901
  2012.4901  2014.2353  2014.2353  2015.9806  2015.9806  2017.7258
  2017.7258  2019.4711  2019.4711  2021.2163  2021.2163  2022.9615
  2022.9615  2024.7068  2024.7068  2026.4520  2008.9996  2010.7449
  2010.7449  2012.4901  2012.4901  2014.2353  2014.2353  2015.9806
  2015.9806  2017.7258  2017.7258  2019.4711  2019.4711  2021.2163
  2021.2163  2022.9615  2022.9615  2024.7068  2024.7068  2026.4520
  2008.9996  2010.7449  2010.7449  2012.4901  2012.4901  2014.2353
  2014.2353  2015.9806  2015.9806  2017.7258  2017.7258  2019.4711
  2019.4711  2021.2163  2021.2163  2022.9615  2022.9615  2024.7068
  2024.7068  2026.4520  2008.9996  2010.7449  2010.7449  2012.4901
  2012.4901  2014.2353  2014.2353  2015.9806  2015.9806  2017.7258
  2017.7258  2019.4711  2019.4711  2021.2163  2021.2163  2022.9615
  2022.9615  2024.7068  2024.7068  2026.4520  2008.9996  2010.7449
  2010.7449  2012.4901  2012.4901  2014.2353  2014.2353  2015.9806
  2015.9806  2017.7258  2017.7258  2019.4711  2019.4711  2021.2163
  2021.2163  2022.9615  2022.9615  2024.7068  2024.7068  2026.4520
  2008.9996  2010.7449  2010.7449  2012.4901  2012.4901  2014.2353
  2014.2353  2015.9806  2015.9806  2017.7258  2017.7258  2019.4711
  2019.4711  2021.2163  2021.2163  2022.9615  2022.9615  2024.7068
  2024.7068  2026.4520  2008.9996  2010.7449  2010.7449  2012.4901
  2012.4901  2014.2353  2014.2353  2015.9806  2015.9806  2017.7258
  2017.7258  2019.4711  2019.4711  2021.2163  2021.2163  2022.9615
  2022.9615  2024.7068  2024.7068  2026.4520  2008.9996  2010.7449
  2010.7449  2012.4901  2012.4901  2014.2353  2014.2353  2015.9806
  2015.9806  2017.7258  2017.7258  2019.4711  2019.4711  2021.2163
  2021.2163  2022.9615  2022.9615  2024.7068  2024.7068  2026.4520
  2008.9996  2010.7449  2010.7449  2012.4901  2012.4901  2014.2353
  2014.2353  2015.9806  2015.9806  2017.7258  2017.7258  2019.4711
  2019.4711  2021.2163  2021.2163  2022.9615  2022.9615  2024.7068
  2024.7068  2026.4520  2008.9996  2010.7449  2010.7449  2012.4901
  2012.4901  2014.2353  2014.2353  2015.9806  2015.9806  2017.7258
  2017.7258  2019.4711  2019.4711  2021.2163  2021.2163  2022.9615
  2022.9615  2024.7068  2024.7068  2026.4520  2008.9996  2010.7449
  2010.7449  2012.4901  2012.4901  2014.2353  2014.2353  2015.9806
  2015.9806  2017.7258  2017.7258  2019.4711  2019.4711  2021.2163
  2021.2163  2022.9615  2022.9615  2024.7068  2024.7068  2026.4520
  2002.4996  2004.2449  2004.2449  2005.9901  2005.9901  2007.7353
  2007.7353  2009.4806  2009.4806  2011.2258  2011.2258  2012.9711
  2012.9711  2014.7163  2014.7163  2016.4615  2016.4615  2018.2068
  2018.2068  2019.9520  2002.4996  2004.2449  2004.2449  2005.9901
  2005.9901  2007.7353  2007.7353  2009.4806  2009.4806  2011.2258
  2011.2258  2012.9711  2012.9711  2014.7163  2014.7163  2016.4615
  2016.4615  2018.2068  2018.2068  2019.9520  2002.4996  2004.2449
  2004.2449  2005.9901  2005.9901  2007.7353  2007.7353  2009.4806
  2009.4806  2011.2258  2011.2258  2012.9711  2012.9711  2014.7163
  2014.7163  2016.4615  2016.4615  2018.2068  2018.2068  2019.9520
  2002.4996  2004.2449  2004.2449  2005.9901  2005.9901  2007.7353
  2007.7353  2009.4806  2009.4806  2011.2258  2011.2258  2012.9711
  2012.9711  2014.7163  2014.7163  2016.4615  2016.4615  2018.2068
  2018.2068  2019.9520  2002.4996  2004.2449  2004.2449  2005.9901
  2005.9901  2007.7353  2007.7353  2009.4806  2009.4806  2011.2258
  2011.2258  2012.9711  2012.9711  2014.7163  2014.7163  2016.4615
  2016.4615  2018.2068  2018.2068  2019.9520  2002.4996  2004.2449
  2004.2449  2005.9901  2005.9901  2007.7353  2007.7353  2009.4806
  2009.4806  2011.2258  2011.2258  2012.9711  2012.9711  2014.7163
  2014.7163  2016.4615  2016.4615  2018.2068  2018.2068  2019.9520
  2002.4996  2004.2449  2004.2449  2005.9901  2005.9901  2007.7353
  2007.7353  2009.4806  2009.4806  2011.2258  2011.2258  2012.9711
  2012.9711  2014.7163  2014.7163  2016.4615  2016.4615  2018.2068
  2018.2068  2019.9520  2002.4996  2004.2449  2004.2449  2005.9901
  2005.9901  2007.7353  2007.7353  2009.4806  2009.4806  2011.2258
  2011.2258  2012.9711  2012.9711  2014.7163  2014.7163  2016.4615
  2016.4615  2018.2068  2018.2068  2019.9520  2002.4996  2004.2449
  2004.2449  2005.9901  2005.9901  2007.7353  2007.7353  2009.4806
  2009.4806  2011.2258  2011.2258  2012.9711  2012.9711  2014.7163
  2014.7163  2016.4615  2016.4615  2018.2068  2018.2068  2019.9520
  2002.4996  2004.2449  2004.2449  2005.9901  2005.9901  2007.7353
  2007.7353  2009.4806  2009.4806  2011.2258  2011.2258  2012.9711
  2012.9711  2014.7163  2014.7163  2016.4615  2016.4615  2018.2068
  2018.2068  2019.9520  2002.4996  2004.2449  2004.2449  2005.9901
  2005.9901  2007.7353  2007.7353  2009.4806  2009.4806  2011.2258
  2011.2258  2012.9711  2012.9711  2014.7163  2014.7163  2016.4615
  2016.4615  2018.2068  2018.2068  2019.9520  2002.4996  2004.2449
  2004.2449  2005.9901  2005.9901  2007.7353  2007.7353  2009.4806
  2009.4806  2011.2258  2011.2258  2012.9711  2012.9711  2014.7163
  2014.7163  2016.4615  2016.4615  2018.2068  2018.2068  2019.9520
  2011.9992  2013.7444  2013.7444  2015.4896  2015.4896  2017.2349
  2017.2349  2018.9801  2018.9801  2020.7254  2020.7254  2022.4706
  2022.4706  2024.2158  2024.2158  2025.9611  2025.9611  2027.7063
  2027.7063  2029.4516  2011.9992  2013.7444  2013.7444  2015.4896
  2015.4896  2017.2349  2017.2349  2018.9801  2018.9801  2020.7254
  2020.7254  2022.4706  2022.4706  2024.2158  2024.2158  2025.9611
  2025.9611  2027.7063  2027.7063  2029.4516  2011.9992  2013.7444
  2013.7444  2015.4896  2015.4896  2017.2349  2017.2349  2018.9801
  2018.9801  2020.7254  2020.7254  2022.4706  2022.4706  2024.2158
  2024.2158  2025.9611  2025.9611  2027.7063  2027.7063  2029.4516
  2011.9992  2013.7444  2013.7444  2015.4896  2015.4896  2017.2349
  2017.2349  2018.9801  2018.9801  2020.7254  2020.7254  2022.4706
  2022.4706  2024.2158  2024.2158  2025.9611  2025.9611  2027.7063
  2027.7063  2029.4516  2011.9992  2013.7444  2013.7444  2015.4896
  2015.4896  2017.2349  2017.2349  2018.9801  2018.9801  2020.7254
  2020.7254  2022.4706  2022.4706  2024.2158  2024.2158  2025.9611
  2025.9611  2027.7063  2027.7063  2029.4516  2011.9992  2013.7444
  2013.7444  2015.4896  2015.4896  2017.2349  2017.2349  2018.9801
  2018.9801  2020.7254  2020.7254  2022.4706  2022.4706  2024.2158
  2024.2158  2025.9611  2025.9611  2027.7063  2027.7063  2029.4516
  2011.9992  2013.7444  2013.7444  2015.4896  2015.4896  2017.2349
  2017.2349  2018.9801  2018.9801  2020.7254  2020.7254  2022.4706
  2022.4706  2024.2158  2024.2158  2025.9611  2025.9611  2027.7063
  2027.7063  2029.4516  2011.9992  2013.7444  2013.7444  2015.4896
  2015.4896  2017.2349  2017.2349  2018.9801  2018.9801  2020.7254
  2020.7254  2022.4706  2022.4706  2024.2158  2024.2158  2025.9611
  2025.9611  2027.7063  2027.7063  2029.4516  2011.9992  2013.7444
  2013.7444  2015.4896  2015.4896  2017.2349  2017.2349  2018.9801
  2018.9801  2020.7254  2020.7254  2022.4706  2022.4706  2024.2158
  2024.2158  2025.9611  2025.9611  2027.7063  2027.7063  2029.4516
  2011.9992  2013.7444  2013.7444  2015.4896  2015.4896  2017.2349
  2017.2349  2018.9801  2018.9801  2020.7254  2020.7254  2022.4706
  2022.4706  2024.2158  2024.2158  2025.9611  2025.9611  2027.7063
  2027.7063  2029.4516  2011.9992  2013.7444  2013.7444  2015.4896
  2015.4896  2017.2349  2017.2349  2018.9801  2018.9801  2020.7254
  2020.7254  2022.4706  2022.4706  2024.2158  2024.2158  2025.9611
  2025.9611  2027.7063  2027.7063  2029.4516  2011.9992  2013.7444
  2013.7444  2015.4896  2015.4896  2017.2349  2017.2349  2018.9801
  2018.9801  2020.7254  2020.7254  2022.4706  2022.4706  2024.2158
  2024.2158  2025.9611  2025.9611  2027.7063  2027.7063  2029.4516
  2005.4992  2007.2444  2007.2444  2008.9896  2008.9896  2010.7349
  2010.7349  2012.4801  2012.4801  2014.2254  2014.2254  2015.9706
  2015.9706  2017.7158  2017.7158  2019.4611  2019.4611  2021.2063
  2021.2063  2022.9516  2005.4992  2007.2444  2007.2444  2008.9896
  2008.9896  2010.7349  2010.7349  2012.4801  2012.4801  2014.2254
  2014.2254  2015.9706  2015.9706  2017.7158  2017.7158  2019.4611
  2019.4611  2021.2063  2021.2063  2022.9516  2005.4992  2007.2444
  2007.2444  2008.9896  2008.9896  2010.7349  2010.7349  2012.4801
  2012.4801  2014.2254  2014.2254  2015.9706  2015.9706  2017.7158
  2017.7158  2019.4611  2019.4611  2021.2063  2021.2063  2022.9516
  2005.4992  2007.2444  2007.2444  2008.9896  2008.9896  2010.7349
  2010.7349  2012.4801  2012.4801  2014.2254  2014.2254  2015.9706