-- This reservoir simulation deck is made available under the Open Database
-- License: http://opendatacommons.org/licenses/odbl/1.0/. Any rights in
-- individual contents of the database are licensed under the Database Contents
-- License: http://opendatacommons.org/licenses/dbcl/1.0/

-- Copyright (C) 2022 Equinor

--
--       SWITCH OFF ECHOING OF INPUT FILES
--
NOECHO

SPECGRID
 20 20 10 1 F /

COORD
  2000.0000  2000.0000  2000.0000   2000.0000  1999.8255  2049.9695
  2100.0000  2000.0000  2000.0000   2100.0000  1999.8255  2049.9695
  2200.0000  2000.0000  2000.0000   2200.0000  1999.8255  2049.9695
  2300.0000  2000.0000  2000.0000   2300.0000  1999.8255  2049.9695
  2400.0000  2000.0000  2000.0000   2400.0000  1999.8255  2049.9695
  2500.0000  2000.0000  2000.0000   2500.0000  1999.8255  2049.9695
  2600.0000  2000.0000  2000.0000   2600.0000  1999.8255  2049.9695
  2700.0000  2000.0000  2000.0000   2700.0000  1999.8255  2049.9695
  2800.0000  2000.0000  2000.0000   2800.0000  1999.8255  2049.9695
  2900.0000  2000.0000  2000.0000   2900.0000  1999.8255  2049.9695
  3000.0000  2000.0000  2000.0000   3000.0000  1999.8255  2049.9695
  3100.0000  2000.0000  2000.0000   3100.0000  1999.8255  2049.9695
  3200.0000  2000.0000  2000.0000   3200.0000  1999.8255  2049.9695
  3300.0000  2000.0000  2000.0000   3300.0000  1999.8255  2049.9695
  3400.0000  2000.0000  2000.0000   3400.0000  1999.8255  2049.9695
  3500.0000  2000.0000  2000.0000   3500.0000  1999.8255  2049.9695
  3600.0000  2000.0000  2000.0000   3600.0000  1999.8255  2049.9695
  3700.0000  2000.0000  2000.0000   3700.0000  1999.8255  2049.9695
  3800.0000  2000.0000  2000.0000   3800.0000  1999.8255  2049.9695
  3900.0000  2000.0000  2000.0000   3900.0000  1999.8255  2049.9695
  4000.0000  2000.0000  2000.0000   4000.0000  1999.8255  2049.9695
  2000.0000  2099.9391  2003.4899   2000.0000  2099.7646  2053.4595
  2100.0000  2099.9391  2003.4899   2100.0000  2099.7646  2053.4595
  2200.0000  2099.9391  2003.4899   2200.0000  2099.7646  2053.4595
  2300.0000  2099.9391  2003.4899   2300.0000  2099.7646  2053.4595
  2400.0000  2099.9391  2003.4899   2400.0000  2099.7646  2053.4595
  2500.0000  2099.9391  2003.4899   2500.0000  2099.7646  2053.4595
  2600.0000  2099.9391  2003.4899   2600.0000  2099.7646  2053.4595
  2700.0000  2099.9391  2003.4899   2700.0000  2099.7646  2053.4595
  2800.0000  2099.9391  2003.4899   2800.0000  2099.7646  2053.4595
  2900.0000  2099.9391  2003.4899   2900.0000  2099.7646  2053.4595
  3000.0000  2099.9391  2003.4899   3000.0000  2099.7646  2053.4595
  3100.0000  2099.9391  2003.4899   3100.0000  2099.7646  2053.4595
  3200.0000  2099.9391  2003.4899   3200.0000  2099.7646  2053.4595
  3300.0000  2099.9391  2003.4899   3300.0000  2099.7646  2053.4595
  3400.0000  2099.9391  2003.4899   3400.0000  2099.7646  2053.4595
  3500.0000  2099.9391  2003.4899   3500.0000  2099.7646  2053.4595
  3600.0000  2099.9391  2003.4899   3600.0000  2099.7646  2053.4595
  3700.0000  2099.9391  2003.4899   3700.0000  2099.7646  2053.4595
  3800.0000  2099.9391  2003.4899   3800.0000  2099.7646  2053.4595
  3900.0000  2099.9391  2003.4899   3900.0000  2099.7646  2053.4595
  4000.0000  2099.9391  2003.4899   4000.0000  2099.7646  2053.4595
  2000.0000  2199.8782  2006.9799   2000.0000  2199.7037  2056.9494
  2100.0000  2199.8782  2006.9799   2100.0000  2199.7037  2056.9494
  2200.0000  2199.8782  2006.9799   2200.0000  2199.7037  2056.9494
  2300.0000  2199.8782  2006.9799   2300.0000  2199.7037  2056.9494
  2400.0000  2199.8782  2006.9799   2400.0000  2199.7037  2056.9494
  2500.0000  2199.8782  2006.9799   2500.0000  2199.7037  2056.9494
  2600.0000  2199.8782  2006.9799   2600.0000  2199.7037  2056.9494
  2700.0000  2199.8782  2006.9799   2700.0000  2199.7037  2056.9494
  2800.0000  2199.8782  2006.9799   2800.0000  2199.7037  2056.9494
  2900.0000  2199.8782  2006.9799   2900.0000  2199.7037  2056.9494
  3000.0000  2199.8782  2006.9799   3000.0000  2199.7037  2056.9494
  3100.0000  2199.8782  2006.9799   3100.0000  2199.7037  2056.9494
  3200.0000  2199.8782  2006.9799   3200.0000  2199.7037  2056.9494
  3300.0000  2199.8782  2006.9799   3300.0000  2199.7037  2056.9494
  3400.0000  2199.8782  2006.9799   3400.0000  2199.7037  2056.9494
  3500.0000  2199.8782  2006.9799   3500.0000  2199.7037  2056.9494
  3600.0000  2199.8782  2006.9799   3600.0000  2199.7037  2056.9494
  3700.0000  2199.8782  2006.9799   3700.0000  2199.7037  2056.9494
  3800.0000  2199.8782  2006.9799   3800.0000  2199.7037  2056.9494
  3900.0000  2199.8782  2006.9799   3900.0000  2199.7037  2056.9494
  4000.0000  2199.8782  2006.9799   4000.0000  2199.7037  2056.9494
  2000.0000  2299.8172  2010.4698   2000.0000  2299.6428  2060.4394
  2100.0000  2299.8172  2010.4698   2100.0000  2299.6428  2060.4394
  2200.0000  2299.8172  2010.4698   2200.0000  2299.6428  2060.4394
  2300.0000  2299.8172  2010.4698   2300.0000  2299.6428  2060.4394
  2400.0000  2299.8172  2010.4698   2400.0000  2299.6428  2060.4394
  2500.0000  2299.8172  2010.4698   2500.0000  2299.6428  2060.4394
  2600.0000  2299.8172  2010.4698   2600.0000  2299.6428  2060.4394
  2700.0000  2299.8172  2010.4698   2700.0000  2299.6428  2060.4394
  2800.0000  2299.8172  2010.4698   2800.0000  2299.6428  2060.4394
  2900.0000  2299.8172  2010.4698   2900.0000  2299.6428  2060.4394
  3000.0000  2299.8172  2010.4698   3000.0000  2299.6428  2060.4394
  3100.0000  2299.8172  2010.4698   3100.0000  2299.6428  2060.4394
  3200.0000  2299.8172  2010.4698   3200.0000  2299.6428  2060.4394
  3300.0000  2299.8172  2010.4698   3300.0000  2299.6428  2060.4394
  3400.0000  2299.8172  2010.4698   3400.0000  2299.6428  2060.4394
  3500.0000  2299.8172  2010.4698   3500.0000  2299.6428  2060.4394
  3600.0000  2299.8172  2010.4698   3600.0000  2299.6428  2060.4394
  3700.0000  2299.8172  2010.4698   3700.0000  2299.6428  2060.4394
  3800.0000  2299.8172  2010.4698   3800.0000  2299.6428  2060.4394
  3900.0000  2299.8172  2010.4698   3900.0000  2299.6428  2060.4394
  4000.0000  2299.8172  2010.4698   4000.0000  2299.6428  2060.4394
  2000.0000  2399.7563  2013.9598   2000.0000  2399.5818  2063.9293
  2100.0000  2399.7563  2013.9598   2100.0000  2399.5818  2063.9293
  2200.0000  2399.7563  2013.9598   2200.0000  2399.5818  2063.9293
  2300.0000  2399.7563  2013.9598   2300.0000  2399.5818  2063.9293
  2400.0000  2399.7563  2013.9598   2400.0000  2399.5818  2063.9293
  2500.0000  2399.7563  2013.9598   2500.0000  2399.5818  2063.9293
  2600.0000  2399.7563  2013.9598   2600.0000  2399.5818  2063.9293
  2700.0000  2399.7563  2013.9598   2700.0000  2399.5818  2063.9293
  2800.0000  2399.7563  2013.9598   2800.0000  2399.5818  2063.9293
  2900.0000  2399.7563  2013.9598   2900.0000  2399.5818  2063.9293
  3000.0000  2399.7563  2013.9598   3000.0000  2399.5818  2063.9293
  3100.0000  2399.7563  2013.9598   3100.0000  2399.5818  2063.9293
  3200.0000  2399.7563  2013.9598   3200.0000  2399.5818  2063.9293
  3300.0000  2399.7563  2013.9598   3300.0000  2399.5818  2063.9293
  3400.0000  2399.7563  2013.9598   3400.0000  2399.5818  2063.9293
  3500.0000  2399.7563  2013.9598   3500.0000  2399.5818  2063.9293
  3600.0000  2399.7563  2013.9598   3600.0000  2399.5818  2063.9293
  3700.0000  2399.7563  2013.9598   3700.0000  2399.5818  2063.9293
  3800.0000  2399.7563  2013.9598   3800.0000  2399.5818  2063.9293
  3900.0000  2399.7563  2013.9598   3900.0000  2399.5818  2063.9293
  4000.0000  2399.7563  2013.9598   4000.0000  2399.5818  2063.9293
  2000.0000  2499.6954  2017.4497   2000.0000  2499.5209  2067.4193
  2100.0000  2499.6954  2017.4497   2100.0000  2499.5209  2067.4193
  2200.0000  2499.6954  2017.4497   2200.0000  2499.5209  2067.4193
  2300.0000  2499.6954  2017.4497   2300.0000  2499.5209  2067.4193
  2400.0000  2499.6954  2017.4497   2400.0000  2499.5209  2067.4193
  2500.0000  2499.6954  2017.4497   2500.0000  2499.5209  2067.4193
  2600.0000  2499.6954  2017.4497   2600.0000  2499.5209  2067.4193
  2700.0000  2499.6954  2017.4497   2700.0000  2499.5209  2067.4193
  2800.0000  2499.6954  2017.4497   2800.0000  2499.5209  2067.4193
  2900.0000  2499.6954  2017.4497   2900.0000  2499.5209  2067.4193
  3000.0000  2499.6954  2017.4497   3000.0000  2499.5209  2067.4193
  3100.0000  2499.6954  2017.4497   3100.0000  2499.5209  2067.4193
  3200.0000  2499.6954  2017.4497   3200.0000  2499.5209  2067.4193
  3300.0000  2499.6954  2017.4497   3300.0000  2499.5209  2067.4193
  3400.0000  2499.6954  2017.4497   3400.0000  2499.5209  2067.4193
  3500.0000  2499.6954  2017.4497   3500.0000  2499.5209  2067.4193
  3600.0000  2499.6954  2017.4497   3600.0000  2499.5209  2067.4193
  3700.0000  2499.6954  2017.4497   3700.0000  2499.5209  2067.4193
  3800.0000  2499.6954  2017.4497   3800.0000  2499.5209  2067.4193
  3900.0000  2499.6954  2017.4497   3900.0000  2499.5209  2067.4193
  4000.0000  2499.6954  2017.4497   4000.0000  2499.5209  2067.4193
  2000.0000  2599.6345  2020.9397   2000.0000  2599.4600  2070.9092
  2100.0000  2599.6345  2020.9397   2100.0000  2599.4600  2070.9092
  2200.0000  2599.6345  2020.9397   2200.0000  2599.4600  2070.9092
  2300.0000  2599.6345  2020.9397   2300.0000  2599.4600  2070.9092
  2400.0000  2599.6345  2020.9397   2400.0000  2599.4600  2070.9092
  2500.0000  2599.6345  2020.9397   2500.0000  2599.4600  2070.9092
  2600.0000  2599.6345  2020.9397   2600.0000  2599.4600  2070.9092
  2700.0000  2599.6345  2020.9397   2700.0000  2599.4600  2070.9092
  2800.0000  2599.6345  2020.9397   2800.0000  2599.4600  2070.9092
  2900.0000  2599.6345  2020.9397   2900.0000  2599.4600  2070.9092
  3000.0000  2599.6345  2020.9397   3000.0000  2599.4600  2070.9092
  3100.0000  2599.6345  2020.9397   3100.0000  2599.4600  2070.9092
  3200.0000  2599.6345  2020.9397   3200.0000  2599.4600  2070.9092
  3300.0000  2599.6345  2020.9397   3300.0000  2599.4600  2070.9092
  3400.0000  2599.6345  2020.9397   3400.0000  2599.4600  2070.9092
  3500.0000  2599.6345  2020.9397   3500.0000  2599.4600  2070.9092
  3600.0000  2599.6345  2020.9397   3600.0000  2599.4600  2070.9092
  3700.0000  2599.6345  2020.9397   3700.0000  2599.4600  2070.9092
  3800.0000  2599.6345  2020.9397   3800.0000  2599.4600  2070.9092
  3900.0000  2599.6345  2020.9397   3900.0000  2599.4600  2070.9092
  4000.0000  2599.6345  2020.9397   4000.0000  2599.4600  2070.9092
  2000.0000  2699.5736  2024.4296   2000.0000  2699.3991  2074.3992
  2100.0000  2699.5736  2024.4296   2100.0000  2699.3991  2074.3992
  2200.0000  2699.5736  2024.4296   2200.0000  2699.3991  2074.3992
  2300.0000  2699.5736  2024.4296   2300.0000  2699.3991  2074.3992
  2400.0000  2699.5736  2024.4296   2400.0000  2699.3991  2074.3992
  2500.0000  2699.5736  2024.4296   2500.0000  2699.3991  2074.3992
  2600.0000  2699.5736  2024.4296   2600.0000  2699.3991  2074.3992
  2700.0000  2699.5736  2024.4296   2700.0000  2699.3991  2074.3992
  2800.0000  2699.5736  2024.4296   2800.0000  2699.3991  2074.3992
  2900.0000  2699.5736  2024.4296   2900.0000  2699.3991  2074.3992
  3000.0000  2699.5736  2024.4296   3000.0000  2699.3991  2074.3992
  3100.0000  2699.5736  2024.4296   3100.0000  2699.3991  2074.3992
  3200.0000  2699.5736  2024.4296   3200.0000  2699.3991  2074.3992
  3300.0000  2699.5736  2024.4296   3300.0000  2699.3991  2074.3992
  3400.0000  2699.5736  2024.4296   3400.0000  2699.3991  2074.3992
  3500.0000  2699.5736  2024.4296   3500.0000  2699.3991  2074.3992
  3600.0000  2699.5736  2024.4296   3600.0000  2699.3991  2074.3992
  3700.0000  2699.5736  2024.4296   3700.0000  2699.3991  2074.3992
  3800.0000  2699.5736  2024.4296   3800.0000  2699.3991  2074.3992
  3900.0000  2699.5736  2024.4296   3900.0000  2699.3991  2074.3992
  4000.0000  2699.5736  2024.4296   4000.0000  2699.3991  2074.3992
  2000.0000  2799.5127  2027.9196   2000.0000  2799.3382  2077.8891
  2100.0000  2799.5127  2027.9196   2100.0000  2799.3382  2077.8891
  2200.0000  2799.5127  2027.9196   2200.0000  2799.3382  2077.8891
  2300.0000  2799.5127  2027.9196   2300.0000  2799.3382  2077.8891
  2400.0000  2799.5127  2027.9196   2400.0000  2799.3382  2077.8891
  2500.0000  2799.5127  2027.9196   2500.0000  2799.3382  2077.8891
  2600.0000  2799.5127  2027.9196   2600.0000  2799.3382  2077.8891
  2700.0000  2799.5127  2027.9196   2700.0000  2799.3382  2077.8891
  2800.0000  2799.5127  2027.9196   2800.0000  2799.3382  2077.8891
  2900.0000  2799.5127  2027.9196   2900.0000  2799.3382  2077.8891
  3000.0000  2799.5127  2027.9196   3000.0000  2799.3382  2077.8891
  3100.0000  2799.5127  2027.9196   3100.0000  2799.3382  2077.8891
  3200.0000  2799.5127  2027.9196   3200.0000  2799.3382  2077.8891
  3300.0000  2799.5127  2027.9196   3300.0000  2799.3382  2077.8891
  3400.0000  2799.5127  2027.9196   3400.0000  2799.3382  2077.8891
  3500.0000  2799.5127  2027.9196   3500.0000  2799.3382  2077.8891
  3600.0000  2799.5127  2027.9196   3600.0000  2799.3382  2077.8891
  3700.0000  2799.5127  2027.9196   3700.0000  2799.3382  2077.8891
  3800.0000  2799.5127  2027.9196   3800.0000  2799.3382  2077.8891
  3900.0000  2799.5127  2027.9196   3900.0000  2799.3382  2077.8891
  4000.0000  2799.5127  2027.9196   4000.0000  2799.3382  2077.8891
  2000.0000  2899.4517  2031.4095   2000.0000  2899.2772  2081.3791
  2100.0000  2899.4517  2031.4095   2100.0000  2899.2772  2081.3791
  2200.0000  2899.4517  2031.4095   2200.0000  2899.2772  2081.3791
  2300.0000  2899.4517  2031.4095   2300.0000  2899.2772  2081.3791
  2400.0000  2899.4517  2031.4095   2400.0000  2899.2772  2081.3791
  2500.0000  2899.4517  2031.4095   2500.0000  2899.2772  2081.3791
  2600.0000  2899.4517  2031.4095   2600.0000  2899.2772  2081.3791
  2700.0000  2899.4517  2031.4095   2700.0000  2899.2772  2081.3791
  2800.0000  2899.4517  2031.4095   2800.0000  2899.2772  2081.3791
  2900.0000  2899.4517  2031.4095   2900.0000  2899.2772  2081.3791
  3000.0000  2899.4517  2031.4095   3000.0000  2899.2772  2081.3791
  3100.0000  2899.4517  2031.4095   3100.0000  2899.2772  2081.3791
  3200.0000  2899.4517  2031.4095   3200.0000  2899.2772  2081.3791
  3300.0000  2899.4517  2031.4095   3300.0000  2899.2772  2081.3791
  3400.0000  2899.4517  2031.4095   3400.0000  2899.2772  2081.3791
  3500.0000  2899.4517  2031.4095   3500.0000  2899.2772  2081.3791
  3600.0000  2899.4517  2031.4095   3600.0000  2899.2772  2081.3791
  3700.0000  2899.4517  2031.4095   3700.0000  2899.2772  2081.3791
  3800.0000  2899.4517  2031.4095   3800.0000  2899.2772  2081.3791
  3900.0000  2899.4517  2031.4095   3900.0000  2899.2772  2081.3791
  4000.0000  2899.4517  2031.4095   4000.0000  2899.2772  2081.3791
  2000.0000  2999.3908  2034.8995   2000.0000  2999.2163  2084.8690
  2100.0000  2999.3908  2034.8995   2100.0000  2999.2163  2084.8690
  2200.0000  2999.3908  2034.8995   2200.0000  2999.2163  2084.8690
  2300.0000  2999.3908  2034.8995   2300.0000  2999.2163  2084.8690
  2400.0000  2999.3908  2034.8995   2400.0000  2999.2163  2084.8690
  2500.0000  2999.3908  2034.8995   2500.0000  2999.2163  2084.8690
  2600.0000  2999.3908  2034.8995   2600.0000  2999.2163  2084.8690
  2700.0000  2999.3908  2034.8995   2700.0000  2999.2163  2084.8690
  2800.0000  2999.3908  2034.8995   2800.0000  2999.2163  2084.8690
  2900.0000  2999.3908  2034.8995   2900.0000  2999.2163  2084.8690
  3000.0000  2999.3908  2034.8995   3000.0000  2999.2163  2084.8690
  3100.0000  2999.3908  2034.8995   3100.0000  2999.2163  2084.8690
  3200.0000  2999.3908  2034.8995   3200.0000  2999.2163  2084.8690
  3300.0000  2999.3908  2034.8995   3300.0000  2999.2163  2084.8690
  3400.0000  2999.3908  2034.8995   3400.0000  2999.2163  2084.8690
  3500.0000  2999.3908  2034.8995   3500.0000  2999.2163  2084.8690
  3600.0000  2999.3908  2034.8995   3600.0000  2999.2163  2084.8690
  3700.0000  2999.3908  2034.8995   3700.0000  2999.2163  2084.8690
  3800.0000  2999.3908  2034.8995   3800.0000  2999.2163  2084.8690
  3900.0000  2999.3908  2034.8995   3900.0000  2999.2163  2084.8690
  4000.0000  2999.3908  2034.8995   4000.0000  2999.2163  2084.8690
  2000.0000  3099.3299  2038.3894   2000.0000  3099.1554  2088.3590
  2100.0000  3099.3299  2038.3894   2100.0000  3099.1554  2088.3590
  2200.0000  3099.3299  2038.3894   2200.0000  3099.1554  2088.3590
  2300.0000  3099.3299  2038.3894   2300.0000  3099.1554  2088.3590
  2400.0000  3099.3299  2038.3894   2400.0000  3099.1554  2088.3590
  2500.0000  3099.3299  2038.3894   2500.0000  3099.1554  2088.3590
  2600.0000  3099.3299  2038.3894   2600.0000  3099.1554  2088.3590
  2700.0000  3099.3299  2038.3894   2700.0000  3099.1554  2088.3590
  2800.0000  3099.3299  2038.3894   2800.0000  3099.1554  2088.3590
  2900.0000  3099.3299  2038.3894   2900.0000  3099.1554  2088.3590
  3000.0000  3099.3299  2038.3894   3000.0000  3099.1554  2088.3590
  3100.0000  3099.3299  2038.3894   3100.0000  3099.1554  2088.3590
  3200.0000  3099.3299  2038.3894   3200.0000  3099.1554  2088.3590
  3300.0000  3099.3299  2038.3894   3300.0000  3099.1554  2088.3590
  3400.0000  3099.3299  2038.3894   3400.0000  3099.1554  2088.3590
  3500.0000  3099.3299  2038.3894   3500.0000  3099.1554  2088.3590
  3600.0000  3099.3299  2038.3894   3600.0000  3099.1554  2088.3590
  3700.0000  3099.3299  2038.3894   3700.0000  3099.1554  2088.3590
  3800.0000  3099.3299  2038.3894   3800.0000  3099.1554  2088.3590
  3900.0000  3099.3299  2038.3894   3900.0000  3099.1554  2088.3590
  4000.0000  3099.3299  2038.3894   4000.0000  3099.1554  2088.3590
  2000.0000  3199.2690  2041.8794   2000.0000  3199.0945  2091.8489
  2100.0000  3199.2690  2041.8794   2100.0000  3199.0945  2091.8489
  2200.0000  3199.2690  2041.8794   2200.0000  3199.0945  2091.8489
  2300.0000  3199.2690  2041.8794   2300.0000  3199.0945  2091.8489
  2400.0000  3199.2690  2041.8794   2400.0000  3199.0945  2091.8489
  2500.0000  3199.2690  2041.8794   2500.0000  3199.0945  2091.8489
  2600.0000  3199.2690  2041.8794   2600.0000  3199.0945  2091.8489
  2700.0000  3199.2690  2041.8794   2700.0000  3199.0945  2091.8489
  2800.0000  3199.2690  2041.8794   2800.0000  3199.0945  2091.8489
  2900.0000  3199.2690  2041.8794   2900.0000  3199.0945  2091.8489
  3000.0000  3199.2690  2041.8794   3000.0000  3199.0945  2091.8489
  3100.0000  3199.2690  2041.8794   3100.0000  3199.0945  2091.8489
  3200.0000  3199.2690  2041.8794   3200.0000  3199.0945  2091.8489
  3300.0000  3199.2690  2041.8794   3300.0000  3199.0945  2091.8489
  3400.0000  3199.2690  2041.8794   3400.0000  3199.0945  2091.8489
  3500.0000  3199.2690  2041.8794   3500.0000  3199.0945  2091.8489
  3600.0000  3199.2690  2041.8794   3600.0000  3199.0945  2091.8489
  3700.0000  3199.2690  2041.8794   3700.0000  3199.0945  2091.8489
  3800.0000  3199.2690  2041.8794   3800.0000  3199.0945  2091.8489
  3900.0000  3199.2690  2041.8794   3900.0000  3199.0945  2091.8489
  4000.0000  3199.2690  2041.8794   4000.0000  3199.0945  2091.8489
  2000.0000  3299.2081  2045.3693   2000.0000  3299.0336  2095.3389
  2100.0000  3299.2081  2045.3693   2100.0000  3299.0336  2095.3389
  2200.0000  3299.2081  2045.3693   2200.0000  3299.0336  2095.3389
  2300.0000  3299.2081  2045.3693   2300.0000  3299.0336  2095.3389
  2400.0000  3299.2081  2045.3693   2400.0000  3299.0336  2095.3389
  2500.0000  3299.2081  2045.3693   2500.0000  3299.0336  2095.3389
  2600.0000  3299.2081  2045.3693   2600.0000  3299.0336  2095.3389
  2700.0000  3299.2081  2045.3693   2700.0000  3299.0336  2095.3389
  2800.0000  3299.2081  2045.3693   2800.0000  3299.0336  2095.3389
  2900.0000  3299.2081  2045.3693   2900.0000  3299.0336  2095.3389
  3000.0000  3299.2081  2045.3693   3000.0000  3299.0336  2095.3389
  3100.0000  3299.2081  2045.3693   3100.0000  3299.0336  2095.3389
  3200.0000  3299.2081  2045.3693   3200.0000  3299.0336  2095.3389
  3300.0000  3299.2081  2045.3693   3300.0000  3299.0336  2095.3389
  3400.0000  3299.2081  2045.3693   3400.0000  3299.0336  2095.3389
  3500.0000  3299.2081  2045.3693   3500.0000  3299.0336  2095.3389
  3600.0000  3299.2081  2045.3693   3600.0000  3299.0336  2095.3389
  3700.0000  3299.2081  2045.3693   3700.0000  3299.0336  2095.3389
  3800.0000  3299.2081  2045.3693   3800.0000  3299.0336  2095.3389
  3900.0000  3299.2081  2045.3693   3900.0000  3299.0336  2095.3389
  4000.0000  3299.2081  2045.3693   4000.0000  3299.0336  2095.3389
  2000.0000  3399.1472  2048.8593   2000.0000  3398.9727  2098.8288
  2100.0000  3399.1472  2048.8593   2100.0000  3398.9727  2098.8288
  2200.0000  3399.1472  2048.8593   2200.0000  3398.9727  2098.8288
  2300.0000  3399.1472  2048.8593   2300.0000  3398.9727  2098.8288
  2400.0000  3399.1472  2048.8593   2400.0000  3398.9727  2098.8288
  2500.0000  3399.1472  2048.8593   2500.0000  3398.9727  2098.8288
  2600.0000  3399.1472  2048.8593   2600.0000  3398.9727  2098.8288
  2700.0000  3399.1472  2048.8593   2700.0000  3398.9727  2098.8288
  2800.0000  3399.1472  2048.8593   2800.0000  3398.9727  2098.8288
  2900.0000  3399.1472  2048.8593   2900.0000  3398.9727  2098.8288
  3000.0000  3399.1472  2048.8593   3000.0000  3398.9727  2098.8288
  3100.0000  3399.1472  2048.8593   3100.0000  3398.9727  2098.8288
  3200.0000  3399.1472  2048.8593   3200.0000  3398.9727  2098.8288
  3300.0000  3399.1472  2048.8593   3300.0000  3398.9727  2098.8288
  3400.0000  3399.1472  2048.8593   3400.0000  3398.9727  2098.8288
  3500.0000  3399.1472  2048.8593   3500.0000  3398.9727  2098.8288
  3600.0000  3399.1472  2048.8593   3600.0000  3398.9727  2098.8288
  3700.0000  3399.1472  2048.8593   3700.0000  3398.9727  2098.8288
  3800.0000  3399.1472  2048.8593   3800.0000  3398.9727  2098.8288
  3900.0000  3399.1472  2048.8593   3900.0000  3398.9727  2098.8288
  4000.0000  3399.1472  2048.8593   4000.0000  3398.9727  2098.8288
  2000.0000  3499.0862  2052.3492   2000.0000  3498.9117  2102.3188
  2100.0000  3499.0862  2052.3492   2100.0000  3498.9117  2102.3188
  2200.0000  3499.0862  2052.3492   2200.0000  3498.9117  2102.3188
  2300.0000  3499.0862  2052.3492   2300.0000  3498.9117  2102.3188
  2400.0000  3499.0862  2052.3492   2400.0000  3498.9117  2102.3188
  2500.0000  3499.0862  2052.3492   2500.0000  3498.9117  2102.3188
  2600.0000  3499.0862  2052.3492   2600.0000  3498.9117  2102.3188
  2700.0000  3499.0862  2052.3492   2700.0000  3498.9117  2102.3188
  2800.0000  3499.0862  2052.3492   2800.0000  3498.9117  2102.3188
  2900.0000  3499.0862  2052.3492   2900.0000  3498.9117  2102.3188
  3000.0000  3499.0862  2052.3492   3000.0000  3498.9117  2102.3188
  3100.0000  3499.0862  2052.3492   3100.0000  3498.9117  2102.3188
  3200.0000  3499.0862  2052.3492   3200.0000  3498.9117  2102.3188
  3300.0000  3499.0862  2052.3492   3300.0000  3498.9117  2102.3188
  3400.0000  3499.0862  2052.3492   3400.0000  3498.9117  2102.3188
  3500.0000  3499.0862  2052.3492   3500.0000  3498.9117  2102.3188
  3600.0000  3499.0862  2052.3492   3600.0000  3498.9117  2102.3188
  3700.0000  3499.0862  2052.3492   3700.0000  3498.9117  2102.3188
  3800.0000  3499.0862  2052.3492   3800.0000  3498.9117  2102.3188
  3900.0000  3499.0862  2052.3492   3900.0000  3498.9117  2102.3188
  4000.0000  3499.0862  2052.3492   4000.0000  3498.9117  2102.3188
  2000.0000  3599.0253  2055.8392   2000.0000  3598.8508  2105.8087
  2100.0000  3599.0253  2055.8392   2100.0000  3598.8508  2105.8087
  2200.0000  3599.0253  2055.8392   2200.0000  3598.8508  2105.8087
  2300.0000  3599.0253  2055.8392   2300.0000  3598.8508  2105.8087
  2400.0000  3599.0253  2055.8392   2400.0000  3598.8508  2105.8087
  2500.0000  3599.0253  2055.8392   2500.0000  3598.8508  2105.8087
  2600.0000  3599.0253  2055.8392   2600.0000  3598.8508  2105.8087
  2700.0000  3599.0253  2055.8392   2700.0000  3598.8508  2105.8087
  2800.0000  3599.0253  2055.8392   2800.0000  3598.8508  2105.8087
  2900.0000  3599.0253  2055.8392   2900.0000  3598.8508  2105.8087
  3000.0000  3599.0253  2055.8392   3000.0000  3598.8508  2105.8087
  3100.0000  3599.0253  2055.8392   3100.0000  3598.8508  2105.8087
  3200.0000  3599.0253  2055.8392   3200.0000  3598.8508  2105.8087
  3300.0000  3599.0253  2055.8392   3300.0000  3598.8508  2105.8087
  3400.0000  3599.0253  2055.8392   3400.0000  3598.8508  2105.8087
  3500.0000  3599.0253  2055.8392   3500.0000  3598.8508  2105.8087
  3600.0000  3599.0253  2055.8392   3600.0000  3598.8508  2105.8087
  3700.0000  3599.0253  2055.8392   3700.0000  3598.8508  2105.8087
  3800.0000  3599.0253  2055.8392   3800.0000  3598.8508  2105.8087
  3900.0000  3599.0253  2055.8392   3900.0000  3598.8508  2105.8087
  4000.0000  3599.0253  2055.8392   4000.0000  3598.8508  2105.8087
  2000.0000  3698.9644  2059.3291   2000.0000  3698.7899  2109.2987
  2100.0000  3698.9644  2059.3291   2100.0000  3698.7899  2109.2987
  2200.0000  3698.9644  2059.3291   2200.0000  3698.7899  2109.2987
  2300.0000  3698.9644  2059.3291   2300.0000  3698.7899  2109.2987
  2400.0000  3698.9644  2059.3291   2400.0000  3698.7899  2109.2987
  2500.0000  3698.9644  2059.3291   2500.0000  3698.7899  2109.2987
  2600.0000  3698.9644  2059.3291   2600.0000  3698.7899  2109.2987
  2700.0000  3698.9644  2059.3291   2700.0000  3698.7899  2109.2987
  2800.0000  3698.9644  2059.3291   2800.0000  3698.7899  2109.2987
  2900.0000  3698.9644  2059.3291   2900.0000  3698.7899  2109.2987
  3000.0000  3698.9644  2059.3291   3000.0000  3698.7899  2109.2987
  3100.0000  3698.9644  2059.3291   3100.0000  3698.7899  2109.2987
  3200.0000  3698.9644  2059.3291   3200.0000  3698.7899  2109.2987
  3300.0000  3698.9644  2059.3291   3300.0000  3698.7899  2109.2987
  3400.0000  3698.9644  2059.3291   3400.0000  3698.7899  2109.2987
  3500.0000  3698.9644  2059.3291   3500.0000  3698.7899  2109.2987
  3600.0000  3698.9644  2059.3291   3600.0000  3698.7899  2109.2987
  3700.0000  3698.9644  2059.3291   3700.0000  3698.7899  2109.2987
  3800.0000  3698.9644  2059.3291   3800.0000  3698.7899  2109.2987
  3900.0000  3698.9644  2059.3291   3900.0000  3698.7899  2109.2987
  4000.0000  3698.9644  2059.3291   4000.0000  3698.7899  2109.2987
  2000.0000  3798.9035  2062.8191   2000.0000  3798.7290  2112.7886
  2100.0000  3798.9035  2062.8191   2100.0000  3798.7290  2112.7886
  2200.0000  3798.9035  2062.8191   2200.0000  3798.7290  2112.7886
  2300.0000  3798.9035  2062.8191   2300.0000  3798.7290  2112.7886
  2400.0000  3798.9035  2062.8191   2400.0000  3798.7290  2112.7886
  2500.0000  3798.9035  2062.8191   2500.0000  3798.7290  2112.7886
  2600.0000  3798.9035  2062.8191   2600.0000  3798.7290  2112.7886
  2700.0000  3798.9035  2062.8191   2700.0000  3798.7290  2112.7886
  2800.0000  3798.9035  2062.8191   2800.0000  3798.7290  2112.7886
  2900.0000  3798.9035  2062.8191   2900.0000  3798.7290  2112.7886
  3000.0000  3798.9035  2062.8191   3000.0000  3798.7290  2112.7886
  3100.0000  3798.9035  2062.8191   3100.0000  3798.7290  2112.7886
  3200.0000  3798.9035  2062.8191   3200.0000  3798.7290  2112.7886
  3300.0000  3798.9035  2062.8191   3300.0000  3798.7290  2112.7886
  3400.0000  3798.9035  2062.8191   3400.0000  3798.7290  2112.7886
  3500.0000  3798.9035  2062.8191   3500.0000  3798.7290  2112.7886
  3600.0000  3798.9035  2062.8191   3600.0000  3798.7290  2112.7886
  3700.0000  3798.9035  2062.8191   3700.0000  3798.7290  2112.7886
  3800.0000  3798.9035  2062.8191   3800.0000  3798.7290  2112.7886
  3900.0000  3798.9035  2062.8191   3900.0000  3798.7290  2112.7886
  4000.0000  3798.9035  2062.8191   4000.0000  3798.7290  2112.7886
  2000.0000  3898.8426  2066.3090   2000.0000  3898.6681  2116.2786
  2100.0000  3898.8426  2066.3090   2100.0000  3898.6681  2116.2786
  2200.0000  3898.8426  2066.3090   2200.0000  3898.6681  2116.2786
  2300.0000  3898.8426  2066.3090   2300.0000  3898.6681  2116.2786
  2400.0000  3898.8426  2066.3090   2400.0000  3898.6681  2116.2786
  2500.0000  3898.8426  2066.3090   2500.0000  3898.6681  2116.2786
  2600.0000  3898.8426  2066.3090   2600.0000  3898.6681  2116.2786
  2700.0000  3898.8426  2066.3090   2700.0000  3898.6681  2116.2786
  2800.0000  3898.8426  2066.3090   2800.0000  3898.6681  2116.2786
  2900.0000  3898.8426  2066.3090   2900.0000  3898.6681  2116.2786
  3000.0000  3898.8426  2066.3090   3000.0000  3898.6681  2116.2786
  3100.0000  3898.8426  2066.3090   3100.0000  3898.6681  2116.2786
  3200.0000  3898.8426  2066.3090   3200.0000  3898.6681  2116.2786
  3300.0000  3898.8426  2066.3090   3300.0000  3898.6681  2116.2786
  3400.0000  3898.8426  2066.3090   3400.0000  3898.6681  2116.2786
  3500.0000  3898.8426  2066.3090   3500.0000  3898.6681  2116.2786
  3600.0000  3898.8426  2066.3090   3600.0000  3898.6681  2116.2786
  3700.0000  3898.8426  2066.3090   3700.0000  3898.6681  2116.2786
  3800.0000  3898.8426  2066.3090   3800.0000  3898.6681  2116.2786
  3900.0000  3898.8426  2066.3090   3900.0000  3898.6681  2116.2786
  4000.0000  3898.8426  2066.3090   4000.0000  3898.6681  2116.2786
  2000.0000  3998.7817  2069.7990   2000.0000  3998.6072  2119.7685
  2100.0000  3998.7817  2069.7990   2100.0000  3998.6072  2119.7685
  2200.0000  3998.7817  2069.7990   2200.0000  3998.6072  2119.7685
  2300.0000  3998.7817  2069.7990   2300.0000  3998.6072  2119.7685
  2400.0000  3998.7817  2069.7990   2400.0000  3998.6072  2119.7685
  2500.0000  3998.7817  2069.7990   2500.0000  3998.6072  2119.7685
  2600.0000  3998.7817  2069.7990   2600.0000  3998.6072  2119.7685
  2700.0000  3998.7817  2069.7990   2700.0000  3998.6072  2119.7685
  2800.0000  3998.7817  2069.7990   2800.0000  3998.6072  2119.7685
  2900.0000  3998.7817  2069.7990   2900.0000  3998.6072  2119.7685
  3000.0000  3998.7817  2069.7990   3000.0000  3998.6072  2119.7685
  3100.0000  3998.7817  2069.7990   3100.0000  3998.6072  2119.7685
  3200.0000  3998.7817  2069.7990   3200.0000  3998.6072  2119.7685
  3300.0000  3998.7817  2069.7990   3300.0000  3998.6072  2119.7685
  3400.0000  3998.7817  2069.7990   3400.0000  3998.6072  2119.7685