-- This reservoir simulation deck is made available under the Open Database
-- License: http://opendatacommons.org/licenses/odbl/1.0/. Any rights in
-- individual contents of the database are licensed under the Database Contents
-- License: http://opendatacommons.org/licenses/dbcl/1.0/

-- Copyright (C) 2020 Equinor


SPECGRID
 6 4 7 1 F / 

COORD
  2000.0000  2000.0000  2000.0000   1999.9084  1999.9695  2023.9909 
  2099.9657  2000.0000  2002.6177   2099.8741  1999.9695  2026.6086 
  2199.9315  2000.0000  2005.2354   2199.8398  1999.9695  2029.2263 
  2299.8972  2000.0000  2007.8531   2299.8056  1999.9695  2031.8439 
  2399.8629  2000.0000  2010.4708   2399.7713  1999.9695  2034.4616 
  2499.8287  2000.0000  2013.0885   2499.7370  1999.9695  2037.0793 
  2599.7944  2000.0000  2015.7062   2599.7028  1999.9695  2039.6970 
  2000.0000  2099.9962  2000.8727   1999.9084  2099.9656  2024.8635 
  2099.9657  2099.9962  2003.4903   2099.8741  2099.9656  2027.4812 
  2199.9315  2099.9962  2006.1080   2199.8398  2099.9656  2030.0989 
  2299.8972  2099.9962  2008.7257   2299.8056  2099.9656  2032.7166 
  2399.8629  2099.9962  2011.3434   2399.7713  2099.9656  2035.3343 
  2499.8287  2099.9962  2013.9611   2499.7370  2099.9656  2037.9520 
  2599.7944  2099.9962  2016.5788   2599.7028  2099.9656  2040.5697 
  2000.0000  2199.9924  2001.7453   1999.9084  2199.9618  2025.7362 
  2099.9657  2199.9924  2004.3630   2099.8741  2199.9618  2028.3539 
  2199.9315  2199.9924  2006.9807   2199.8398  2199.9618  2030.9716 
  2299.8972  2199.9924  2009.5984   2299.8056  2199.9618  2033.5893 
  2399.8629  2199.9924  2012.2161   2399.7713  2199.9618  2036.2069 
  2499.8287  2199.9924  2014.8338   2499.7370  2199.9618  2038.8246 
  2599.7944  2199.9924  2017.4515   2599.7028  2199.9618  2041.4423 
  2000.0000  2299.9886  2002.6180   1999.9084  2299.9580  2026.6088 
  2099.9657  2299.9886  2005.2357   2099.8741  2299.9580  2029.2265 
  2199.9315  2299.9886  2007.8534   2199.8398  2299.9580  2031.8442 
  2299.8972  2299.9886  2010.4710   2299.8056  2299.9580  2034.4619 
  2399.8629  2299.9886  2013.0887   2399.7713  2299.9580  2037.0796 
  2499.8287  2299.9886  2015.7064   2499.7370  2299.9580  2039.6973 
  2599.7944  2299.9886  2018.3241   2599.7028  2299.9580  2042.3150 
  2000.0000  2399.9848  2003.4906   1999.9084  2399.9542  2027.4815 
  2099.9657  2399.9848  2006.1083   2099.8741  2399.9542  2030.0992 
  2199.9315  2399.9848  2008.7260   2199.8398  2399.9542  2032.7169 
  2299.8972  2399.9848  2011.3437   2299.8056  2399.9542  2035.3346 
  2399.8629  2399.9848  2013.9614   2399.7713  2399.9542  2037.9523 
  2499.8287  2399.9848  2016.5791   2499.7370  2399.9542  2040.5700 
  2599.7944  2399.9848  2019.1968   2599.7028  2399.9542  2043.1876 
/ 

ZCORN
  2000.0000  2002.6177  2002.6177  2005.2354  2005.2354  2007.8531
  2007.8531  2010.4708  2010.4708  2013.0885  2013.0885  2015.7062
  2000.8727  2003.4903  2003.4903  2006.1080  2006.1080  2008.7257
  2008.7257  2011.3434  2011.3434  2013.9611  2013.9611  2016.5788
  2000.8727  2003.4903  2003.4903  2006.1080  2006.1080  2008.7257
  2008.7257  2011.3434  2011.3434  2013.9611  2013.9611  2016.5788
  2001.7453  2004.3630  2004.3630  2006.9807  2006.9807  2009.5984
  2009.5984  2012.2161  2012.2161  2014.8338  2014.8338  2017.4515
  2001.7453  2004.3630  2004.3630  2006.9807  2006.9807  2009.5984
  2009.5984  2012.2161  2012.2161  2014.8338  2014.8338  2017.4515
  2002.6180  2005.2357  2005.2357  2007.8534  2007.8534  2010.4710
  2010.4710  2013.0887  2013.0887  2015.7064  2015.7064  2018.3241
  2002.6180  2005.2357  2005.2357  2007.8534  2007.8534  2010.4710
  2010.4710  2013.0887  2013.0887  2015.7064  2015.7064  2018.3241
  2003.4906  2006.1083  2006.1083  2008.7260  2008.7260  2011.3437
  2011.3437  2013.9614  2013.9614  2016.5791  2016.5791  2019.1968
  2002.4990  2005.1167  2005.1167  2007.7344  2007.7344  2010.3521
  2010.3521  2012.9698  2012.9698  2015.5875  2015.5875  2018.2052
  2003.3717  2005.9894  2005.9894  2008.6071  2008.6071  2011.2248
  2011.2248  2013.8425  2013.8425  2016.4602  2016.4602  2019.0779
  2003.3717  2005.9894  2005.9894  2008.6071  2008.6071  2011.2248
  2011.2248  2013.8425  2013.8425  2016.4602  2016.4602  2019.0779
  2004.2444  2006.8621  2006.8621  2009.4797  2009.4797  2012.0974
  2012.0974  2014.7151  2014.7151  2017.3328  2017.3328  2019.9505
  2004.2444  2006.8621  2006.8621  2009.4797  2009.4797  2012.0974
  2012.0974  2014.7151  2014.7151  2017.3328  2017.3328  2019.9505
  2005.1170  2007.7347  2007.7347  2010.3524  2010.3524  2012.9701
  2012.9701  2015.5878  2015.5878  2018.2055  2018.2055  2020.8232
  2005.1170  2007.7347  2007.7347  2010.3524  2010.3524  2012.9701
  2012.9701  2015.5878  2015.5878  2018.2055  2018.2055  2020.8232
  2005.9897  2008.6074  2008.6074  2011.2251  2011.2251  2013.8427
  2013.8427  2016.4604  2016.4604  2019.0781  2019.0781  2021.6958
  2002.4990  2005.1167  2005.1167  2007.7344  2007.7344  2010.3521
  2010.3521  2012.9698  2012.9698  2015.5875  2015.5875  2018.2052
  2003.3717  2005.9894  2005.9894  2008.6071  2008.6071  2011.2248
  2011.2248  2013.8425  2013.8425  2016.4602  2016.4602  2019.0779
  2003.3717  2005.9894  2005.9894  2008.6071  2008.6071  2011.2248
  2011.2248  2013.8425  2013.8425  2016.4602  2016.4602  2019.0779
  2004.2444  2006.8621  2006.8621  2009.4797  2009.4797  2012.0974
  2012.0974  2014.7151  2014.7151  2017.3328  2017.3328  2019.9505
  2004.2444  2006.8621  2006.8621  2009.4797  2009.4797  2012.0974
  2012.0974  2014.7151  2014.7151  2017.3328  2017.3328  2019.9505
  2005.1170  2007.7347  2007.7347  2010.3524  2010.3524  2012.9701
  2012.9701  2015.5878  2015.5878  2018.2055  2018.2055  2020.8232
  2005.1170  2007.7347  2007.7347  2010.3524  2010.3524  2012.9701
  2012.9701  2015.5878  2015.5878  2018.2055  2018.2055  2020.8232
  2005.9897  2008.6074  2008.6074  2011.2251  2011.2251  2013.8427
  2013.8427  2016.4604  2016.4604  2019.0781  2019.0781  2021.6958
  2005.4979  2008.1156  2008.1156  2010.7333  2010.7333  2013.3510
  2013.3510  2015.9687  2015.9687  2018.5864  2018.5864  2021.2041
  2006.3706  2008.9883  2008.9883  2011.6059  2011.6059  2014.2236
  2014.2236  2016.8413  2016.8413  2019.4590  2019.4590  2022.0767
  2006.3706  2008.9883  2008.9883  2011.6059  2011.6059  2014.2236
  2014.2236  2016.8413  2016.8413  2019.4590  2019.4590  2022.0767
  2007.2432  2009.8609  2009.8609  2012.4786  2012.4786  2015.0963
  2015.0963  2017.7140  2017.7140  2020.3317  2020.3317  2022.9494
  2007.2432  2009.8609  2009.8609  2012.4786  2012.4786  2015.0963
  2015.0963  2017.7140  2017.7140  2020.3317  2020.3317  2022.9494
  2008.1159  2010.7336  2010.7336  2013.3513  2013.3513  2015.9690
  2015.9690  2018.5866  2018.5866  2021.2043  2021.2043  2023.8220
  2008.1159  2010.7336  2010.7336  2013.3513  2013.3513  2015.9690
  2015.9690  2018.5866  2018.5866  2021.2043  2021.2043  2023.8220
  2008.9885  2011.6062  2011.6062  2014.2239  2014.2239  2016.8416
  2016.8416  2019.4593  2019.4593  2022.0770  2022.0770  2024.6947
  2005.4979  2008.1156  2008.1156  2010.7333  2010.7333  2013.3510
  2013.3510  2015.9687  2015.9687  2018.5864  2018.5864  2021.2041
  2006.3706  2008.9883  2008.9883  2011.6059  2011.6059  2014.2236
  2014.2236  2016.8413  2016.8413  2019.4590  2019.4590  2022.0767
  2006.3706  2008.9883  2008.9883  2011.6059  2011.6059  2014.2236
  2014.2236  2016.8413  2016.8413  2019.4590  2019.4590  2022.0767
  2007.2432  2009.8609  2009.8609  2012.4786  2012.4786  2015.0963
  2015.0963  2017.7140  2017.7140  2020.3317  2020.3317  2022.9494
  2007.2432  2009.8609  2009.8609  2012.4786  2012.4786  2015.0963
  2015.0963  2017.7140  2017.7140  2020.3317  2020.3317  2022.9494
  2008.1159  2010.7336  2010.7336  2013.3513  2013.3513  2015.9690
  2015.9690  2018.5866  2018.5866  2021.2043  2021.2043  2023.8220
  2008.1159  2010.7336  2010.7336  2013.3513  2013.3513  2015.9690
  2015.9690  2018.5866  2018.5866  2021.2043  2021.2043  2023.8220
  2008.9885  2011.6062  2011.6062  2014.2239  2014.2239  2016.8416
  2016.8416  2019.4593  2019.4593  2022.0770  2022.0770  2024.6947
  2008.9966  2011.6143  2011.6143  2014.2320  2014.2320  2016.8497
  2016.8497  2019.4674  2019.4674  2022.0850  2022.0850  2024.7027
  2009.8692  2012.4869  2012.4869  2015.1046  2015.1046  2017.7223
  2017.7223  2020.3400  2020.3400  2022.9577  2022.9577  2025.5754
  2009.8692  2012.4869  2012.4869  2015.1046  2015.1046  2017.7223
  2017.7223  2020.3400  2020.3400  2022.9577  2022.9577  2025.5754
  2010.7419  2013.3596  2013.3596  2015.9773  2015.9773  2018.5950
  2018.5950  2021.2127  2021.2127  2023.8304  2023.8304  2026.4480
  2010.7419  2013.3596  2013.3596  2015.9773  2015.9773  2018.5950
  2018.5950  2021.2127  2021.2127  2023.8304  2023.8304  2026.4480
  2011.6145  2014.2322  2014.2322  2016.8499  2016.8499  2019.4676
  2019.4676  2022.0853  2022.0853  2024.7030  2024.7030  2027.3207
  2011.6145  2014.2322  2014.2322  2016.8499  2016.8499  2019.4676
  2019.4676  2022.0853  2022.0853  2024.7030  2024.7030  2027.3207
  2012.4872  2015.1049  2015.1049  2017.7226  2017.7226  2020.3403
  2020.3403  2022.9580  2022.9580  2025.5757  2025.5757  2028.1934
  2008.9966  2011.6143  2011.6143  2014.2320  2014.2320  2016.8497
  2016.8497  2019.4674  2019.4674  2022.0850  2022.0850  2024.7027
  2009.8692  2012.4869  2012.4869  2015.1046  2015.1046  2017.7223
  2017.7223  2020.3400  2020.3400  2022.9577  2022.9577  2025.5754
  2009.8692  2012.4869  2012.4869  2015.1046  2015.1046  2017.7223
  2017.7223  2020.3400  2020.3400  2022.9577  2022.9577  2025.5754
  2010.7419  2013.3596  2013.3596  2015.9773  2015.9773  2018.5950
  2018.5950  2021.2127  2021.2127  2023.8304  2023.8304  2026.4480
  2010.7419  2013.3596  2013.3596  2015.9773  2015.9773  2018.5950
  2018.5950  2021.2127  2021.2127  2023.8304  2023.8304  2026.4480
  2011.6145  2014.2322  2014.2322  2016.8499  2016.8499  2019.4676
  2019.4676  2022.0853  2022.0853  2024.7030  2024.7030  2027.3207
  2011.6145  2014.2322  2014.2322  2016.8499  2016.8499  2019.4676
  2019.4676  2022.0853  2022.0853  2024.7030  2024.7030  2027.3207
  2012.4872  2015.1049  2015.1049  2017.7226  2017.7226  2020.3403
  2020.3403  2022.9580  2022.9580  2025.5757  2025.5757  2028.1934
  2012.9951  2015.6127  2015.6127  2018.2304  2018.2304  2020.8481
  2020.8481  2023.4658  2023.4658  2026.0835  2026.0835  2028.7012
  2013.8677  2016.4854  2016.4854  2019.1031  2019.1031  2021.7208
  2021.7208  2024.3385  2024.3385  2026.9562  2026.9562  2029.5739
  2013.8677  2016.4854  2016.4854  2019.1031  2019.1031  2021.7208
  2021.7208  2024.3385  2024.3385  2026.9562  2026.9562  2029.5739
  2014.7404  2017.3581  2017.3581  2019.9757  2019.9757  2022.5934
  2022.5934  2025.2111  2025.2111  2027.8288  2027.8288  2030.4465
  2014.7404  2017.3581  2017.3581  2019.9757  2019.9757  2022.5934
  2022.5934  2025.2111  2025.2111  2027.8288  2027.8288  2030.4465
  2015.6130  2018.2307  2018.2307  2020.8484  2020.8484  2023.4661
  2023.4661  2026.0838  2026.0838  2028.7015  2028.7015  2031.3192
  2015.6130  2018.2307  2018.2307  2020.8484  2020.8484  2023.4661
  2023.4661  2026.0838  2026.0838  2028.7015  2028.7015  2031.3192
  2016.4857  2019.1034  2019.1034  2021.7211  2021.7211  2024.3387
  2024.3387  2026.9564  2026.9564  2029.5741  2029.5741  2032.1918
  2012.9951  2015.6127  2015.6127  2018.2304  2018.2304  2020.8481
  2020.8481  2023.4658  2023.4658  2026.0835  2026.0835  2028.7012
  2013.8677  2016.4854  2016.4854  2019.1031  2019.1031  2021.7208
  2021.7208  2024.3385  2024.3385  2026.9562  2026.9562  2029.5739
  2013.8677  2016.4854  2016.4854  2019.1031  2019.1031  2021.7208
  2021.7208  2024.3385  2024.3385  2026.9562  2026.9562  2029.5739
  2014.7404  2017.3581  2017.3581  2019.9757  2019.9757  2022.5934
  2022.5934  2025.2111  2025.2111  2027.8288  2027.8288  2030.4465
  2014.7404  2017.3581  2017.3581  2019.9757  2019.9757  2022.5934
  2022.5934  2025.2111  2025.2111  2027.8288  2027.8288  2030.4465
  2015.6130  2018.2307  2018.2307  2020.8484  2020.8484  2023.4661
  2023.4661  2026.0838  2026.0838  2028.7015  2028.7015  2031.3192
  2015.6130  2018.2307  2018.2307  2020.8484  2020.8484  2023.4661
  2023.4661  2026.0838  2026.0838  2028.7015  2028.7015  2031.3192
  2016.4857  2019.1034  2019.1034  2021.7211  2021.7211  2024.3387
  2024.3387  2026.9564  2026.9564  2029.5741  2029.5741  2032.1918
  2017.4933  2020.1110  2020.1110  2022.7287  2022.7287  2025.3464
  2025.3464  2027.9641  2027.9641  2030.5818  2030.5818  2033.1995
  2018.3660  2020.9837  2020.9837  2023.6014  2023.6014  2026.2191
  2026.2191  2028.8368  2028.8368  2031.4545  2031.4545  2034.0722
  2018.3660  2020.9837  2020.9837  2023.6014  2023.6014  2026.2191
  2026.2191  2028.8368  2028.8368  2031.4545  2031.4545  2034.0722
  2019.2386  2021.8563  2021.8563  2024.4740  2024.4740  2027.0917
  2027.0917  2029.7094  2029.7094  2032.3271  2032.3271  2034.9448
  2019.2386  2021.8563  2021.8563  2024.4740  2024.4740  2027.0917
  2027.0917  2029.7094  2029.7094  2032.3271  2032.3271  2034.9448
  2020.1113  2022.7290  2022.7290  2025.3467  2025.3467  2027.9644
  2027.9644  2030.5821  2030.5821  2033.1998  2033.1998  2035.8175
  2020.1113  2022.7290  2022.7290  2025.3467  2025.3467  2027.9644
  2027.9644  2030.5821  2030.5821  2033.1998  2033.1998  2035.8175
  2020.9840  2023.6016  2023.6016  2026.2193  2026.2193  2028.8370
  2028.8370  2031.4547  2031.4547  2034.0724  2034.0724  2036.6901
  2017.4933  2020.1110  2020.1110  2022.7287  2022.7287  2025.3464
  2025.3464  2027.9641  2027.9641  2030.5818  2030.5818  2033.1995
  2018.3660  2020.9837  2020.9837  2023.6014  2023.6014  2026.2191
  2026.2191  2028.8368  2028.8368  2031.4545  2031.4545  2034.0722
  2018.3660  2020.9837  2020.9837  2023.6014  2023.6014  2026.2191
  2026.2191  2028.8368  2028.8368  2031.4545  2031.4545  2034.0722
  2019.2386  2021.8563  2021.8563  2024.4740  2024.4740  2027.0917
  2027.0917  2029.7094  2029.7094  2032.3271  2032.3271  2034.9448
  2019.2386  2021.8563  2021.8563  2024.4740  2024.4740  2027.0917
  2027.0917  2029.7094  2029.7094  2032.3271  2032.3271  2034.9448
  2020.1113  2022.7290  2022.7290  2025.3467  2025.3467  2027.9644
  2027.9644  2030.5821  2030.5821  2033.1998  2033.1998  2035.8175
  2020.1113  2022.7290  2022.7290  2025.3467  2025.3467  2027.9644
  2027.9644  2030.5821  2030.5821  2033.1998  2033.1998  2035.8175
  2020.9840  2023.6016  2023.6016  2026.2193  2026.2193  2028.8370
  2028.8370  2031.4547  2031.4547  2034.0724  2034.0724  2036.6901
  2020.4922  2023.1099  2023.1099  2025.7276  2025.7276  2028.3453
  2028.3453  2030.9630  2030.9630  2033.5807  2033.5807  2036.1984
  2021.3648  2023.9825  2023.9825  2026.6002  2026.6002  2029.2179
  2029.2179  2031.8356  2031.8356  2034.4533  2034.4533  2037.0710
  2021.3648  2023.9825  2023.9825  2026.6002  2026.6002  2029.2179
  2029.2179  2031.8356  2031.8356  2034.4533  2034.4533  2037.0710
  2022.2375  2024.8552  2024.8552  2027.4729  2027.4729  2030.0906
  2030.0906  2032.7083  2032.7083  2035.3260  2035.3260  2037.9437
  2022.2375  2024.8552  2024.8552  2027.4729  2027.4729  2030.0906
  2030.0906  2032.7083  2032.7083  2035.3260  2035.3260  2037.9437
  2023.1102  2025.7279  2025.7279  2028.3455  2028.3455  2030.9632
  2030.9632  2033.5809  2033.5809  2036.1986  2036.1986  2038.8163
  2023.1102  2025.7279  2025.7279  2028.3455  2028.3455  2030.9632
  2030.9632  2033.5809  2033.5809  2036.1986  2036.1986  2038.8163
  2023.9828  2026.6005  2026.6005  2029.2182  2029.2182  2031.8359
  2031.8359  2034.4536  2034.4536  2037.0713  2037.0713  2039.6890
  2020.4922  2023.1099  2023.1099  2025.7276  2025.7276  2028.3453
  2028.3453  2030.9630  2030.9630  2033.5807  2033.5807  2036.1984
  2021.3648  2023.9825  2023.9825  2026.6002  2026.6002  2029.2179
  2029.2179  2031.8356  2031.8356  2034.4533  2034.4533  2037.0710
  2021.3648  2023.9825  2023.9825  2026.6002  2026.6002  2029.2179
  2029.2179  2031.8356  2031.8356  2034.4533  2034.4533  2037.0710
  2022.2375  2024.8552  2024.8552  2027.4729  2027.4729  2030.0906
  2030.0906  2032.7083  2032.7083  2035.3260  2035.3260  2037.9437
  2022.2375  2024.8552  2024.8552  2027.4729  2027.4729  2030.0906
  2030.0906  2032.7083  2032.7083  2035.3260  2035.3260  2037.9437
  2023.1102  2025.7279  2025.7279  2028.3455  2028.3455  2030.9632
  2030.9632  2033.5809  2033.5809  2036.1986  2036.1986  2038.8163
  2023.1102  2025.7279  2025.7279  2028.3455  2028.3455  2030.9632
  2030.9632  2033.5809  2033.5809  2036.1986  2036.1986  2038.8163
  2023.9828  2026.6005  2026.6005  2029.2182  2029.2182  2031.8359
  2031.8359  2034.4536  2034.4536  2037.0713  2037.0713  2039.6890
  2023.9909  2026.6086  2026.6086  2029.2263  2029.2263  2031.8439
  2031.8439  2034.4616  2034.4616  2037.0793  2037.0793  2039.6970
  2024.8635  2027.4812  2027.4812  2030.0989  2030.0989  2032.7166
  2032.7166  2035.3343  2035.3343  2037.9520  2037.9520  2040.5697
  2024.8635  2027.4812  2027.4812  2030.0989  2030.0989  2032.7166
  2032.7166  2035.3343  2035.3343  2037.9520  2037.9520  2040.5697
  2025.7362  2028.3539  2028.3539  2030.9716  2030.9716  2033.5893
  2033.5893  2036.2069  2036.2069  2038.8246  2038.8246  2041.4423
  2025.7362  2028.3539  2028.3539  2030.9716  2030.9716  2033.5893
  2033.5893  2036.2069  2036.2069  2038.8246  2038.8246  2041.4423
  2026.6088  2029.2265  2029.2265  2031.8442  2031.8442  2034.4619
  2034.4619  2037.0796  2037.0796  2039.6973  2039.6973  2042.3150
  2026.6088  2029.2265  2029.2265  2031.8442  2031.8442  2034.4619
  2034.4619  2037.0796  2037.0796  2039.6973  2039.6973  2042.3150
  2027.4815  2030.0992  2030.0992  2032.7169  2032.7169  2035.3346
  2035.3346  2037.9523  2037.9523  2040.5700  2040.5700  2043.1876
 / 
